ITEM: TIMESTEP
41900000 
ITEM: NUMBER OF ATOMS 
25000 
ITEM: BOX BOUNDS pp pp pp 
-103.678017 103.678017 
-103.678017 103.678017 
-103.678017 103.678017 
ITEM: ATOMS id mol type q mass xu yu zu ix iy iz 
1 1 2 1.00000000 128.19999695 447.30770111 -58.13618469 -206.63627112 2 0 -1 
2 1 1 -1.00000000 129.10000610 446.65162086 -57.67675018 -202.93458748 2 0 -1 
3 1 2 1.00000000 128.19999695 448.90982437 -55.56241226 -200.71802521 2 0 -1 
4 1 2 1.00000000 128.19999695 451.59673309 -52.77170181 -199.64497805 2 0 -1 
5 1 2 1.00000000 128.19999695 454.36618042 -52.42226791 -197.07020760 2 0 -1 
6 1 1 -1.00000000 129.10000610 455.48780441 -56.46015549 -196.12869740 2 0 -1 
7 1 2 1.00000000 128.19999695 456.19215012 -56.59434509 -192.08869839 2 0 -1 
8 1 1 -1.00000000 129.10000610 453.01334763 -58.04712677 -190.31391525 2 0 -1 
9 1 1 -1.00000000 129.10000610 449.63487625 -56.46464539 -190.41676521 2 0 -1 
10 1 1 -1.00000000 129.10000610 446.19922829 -55.36672592 -192.01754093 2 0 -1 
11 1 2 1.00000000 128.19999695 446.82641983 -52.17399216 -193.56086445 2 0 -1 
12 1 1 -1.00000000 129.10000610 448.02749252 -48.40722656 -193.82007599 2 0 -1 
13 1 1 -1.00000000 129.10000610 448.35474777 -44.44527817 -193.45028973 2 0 -1 
14 1 1 -1.00000000 129.10000610 449.64624405 -41.88539505 -191.24978256 2 0 -1 
15 1 2 1.00000000 128.19999695 450.63794708 -43.20515060 -187.77151299 2 0 -1 
16 1 2 1.00000000 128.19999695 454.11361313 -44.16332245 -187.71940041 2 0 -1 
17 1 1 -1.00000000 129.10000610 455.11192322 -47.76889038 -187.34185600 2 0 -1 
18 1 1 -1.00000000 129.10000610 457.34356689 -49.73886108 -185.66450691 2 0 -1 
19 1 2 1.00000000 128.19999695 460.83482742 -50.52640152 -186.52335358 2 0 -1 
20 1 1 -1.00000000 129.10000610 462.37089920 -53.88091278 -184.53829384 2 0 -1 
21 1 1 -1.00000000 129.10000610 465.29457855 -55.79862976 -182.81344604 2 0 -1 
22 1 1 -1.00000000 129.10000610 464.53963852 -54.97352600 -179.13339043 2 0 -1 
23 1 2 1.00000000 128.19999695 463.75860977 -51.03439713 -179.89704704 2 0 -1 
24 1 1 -1.00000000 129.10000610 465.94709396 -48.69353104 -181.20323563 2 0 -1 
25 1 1 -1.00000000 129.10000610 466.81191254 -47.60246658 -184.53489876 2 0 -1 
26 1 2 1.00000000 128.19999695 467.62477493 -48.74175262 -187.76793861 2 0 -1 
27 1 2 1.00000000 128.19999695 470.08857727 -51.44327927 -188.68772125 2 0 -1 
28 1 2 1.00000000 128.19999695 473.41133881 -51.65192413 -187.74986458 2 0 -1 
29 1 2 1.00000000 128.19999695 476.66684723 -52.18398285 -186.60508156 2 0 -1 
30 1 2 1.00000000 128.19999695 479.21461487 -54.71828461 -188.15649796 2 0 -1 
31 1 1 -1.00000000 129.10000610 477.67161942 -57.99237061 -187.72304535 2 0 -1 
32 1 1 -1.00000000 129.10000610 476.14890671 -61.32639694 -189.47548294 2 0 -1 
33 1 1 -1.00000000 129.10000610 473.21107101 -61.65791321 -186.97039413 2 0 -1 
34 1 2 1.00000000 128.19999695 469.54481506 -59.68841171 -187.35117149 2 0 -1 
35 1 2 1.00000000 128.19999695 466.99277115 -62.66962051 -187.03806114 2 0 -1 
36 1 2 1.00000000 128.19999695 464.16370392 -62.45401382 -189.68573380 2 0 -1 
37 1 1 -1.00000000 129.10000610 460.00832367 -62.65440369 -189.43785477 2 0 -1 
38 1 2 1.00000000 128.19999695 456.79471207 -62.98881912 -187.46236801 2 0 -1 
39 1 1 -1.00000000 129.10000610 455.27956009 -63.13919830 -184.06062889 2 0 -1 
40 1 1 -1.00000000 129.10000610 453.86362457 -66.04145813 -182.01936150 2 0 -1 
41 1 1 -1.00000000 129.10000610 454.00546265 -69.29133606 -180.28771019 2 0 -1 
42 1 2 1.00000000 128.19999695 456.77581406 -70.50016022 -177.42376518 2 0 -1 
43 1 1 -1.00000000 129.10000610 457.67748642 -70.19216156 -174.02359009 2 0 -1 
44 1 2 1.00000000 128.19999695 460.28952026 -72.58148193 -172.19337845 2 0 -1 
45 1 2 1.00000000 128.19999695 463.87163925 -71.63035583 -172.25339127 2 0 -1 
46 1 2 1.00000000 128.19999695 467.24941254 -71.31945801 -170.97719955 2 0 -1 
47 1 1 -1.00000000 129.10000610 469.94253159 -69.83538055 -169.41390228 2 0 -1 
48 1 2 1.00000000 128.19999695 471.46847534 -67.08743286 -170.99713898 2 0 -1 
49 1 1 -1.00000000 129.10000610 469.99777603 -63.60372162 -170.46388245 2 0 -1 
50 1 2 1.00000000 128.19999695 471.91236877 -61.22747421 -168.69604111 2 0 -1 
51 2 2 1.00000000 128.19999695 437.56958961 386.28882599 -306.16596222 2 2 -1 
52 2 1 -1.00000000 129.10000610 436.45933533 383.46385002 -303.65503693 2 2 -1 
53 2 2 1.00000000 128.19999695 437.74824142 380.60113144 -301.91857147 2 2 -1 
54 2 2 1.00000000 128.19999695 435.11792564 378.18211365 -300.23097992 2 2 -1 
55 2 2 1.00000000 128.19999695 431.36921692 378.43049240 -300.22229004 2 2 -1 
56 2 1 -1.00000000 129.10000610 429.94572258 380.63159943 -297.42650604 2 2 -1 
57 2 2 1.00000000 128.19999695 429.03110027 381.47448730 -293.93907166 2 2 -1 
58 2 1 -1.00000000 129.10000610 431.52254486 379.98510742 -290.87659454 2 2 -1 
59 2 1 -1.00000000 129.10000610 433.53704834 377.38338852 -292.18526459 2 2 -1 
60 2 1 -1.00000000 129.10000610 436.54403877 375.85577393 -290.24429321 2 2 -1 
61 2 2 1.00000000 128.19999695 436.14033127 374.10428619 -286.72175598 2 2 -1 
62 2 1 -1.00000000 129.10000610 435.83639145 370.20668030 -287.33451843 2 2 -1 
63 2 1 -1.00000000 129.10000610 433.37112808 368.00782394 -289.04368591 2 2 -1 
64 2 1 -1.00000000 129.10000610 430.82838058 365.45645523 -290.34799957 2 2 -1 
65 2 2 1.00000000 128.19999695 427.27752495 363.70896912 -290.87776947 2 2 -1 
66 2 2 1.00000000 128.19999695 427.52956390 363.65684509 -295.13462830 2 2 -1 
67 2 1 -1.00000000 129.10000610 428.21467209 362.95743942 -299.08965302 2 2 -1 
68 2 1 -1.00000000 129.10000610 428.48216724 361.13003922 -301.88330078 2 2 -1 
69 2 2 1.00000000 128.19999695 430.27129078 358.34006119 -303.76971436 2 2 -1 
70 2 1 -1.00000000 129.10000610 432.77299118 357.12023163 -300.68930817 2 2 -1 
71 2 1 -1.00000000 129.10000610 432.34481430 359.01497650 -297.60621643 2 2 -1 
72 2 1 -1.00000000 129.10000610 434.68579292 362.05341721 -297.11162567 2 2 -1 
73 2 2 1.00000000 128.19999695 437.39357567 365.01172256 -297.11485291 2 2 -1 
74 2 1 -1.00000000 129.10000610 439.59267616 364.93833160 -294.19718933 2 2 -1 
75 2 1 -1.00000000 129.10000610 441.16223145 368.47448349 -292.50144958 2 2 -1 
76 2 2 1.00000000 128.19999695 445.26733017 368.33103180 -291.86054230 2 2 -1 
77 2 2 1.00000000 128.19999695 448.92707062 369.21768188 -290.20428467 2 2 -1 
78 2 2 1.00000000 128.19999695 451.74343872 367.17363739 -288.30580902 2 2 -1 
79 2 2 1.00000000 128.19999695 451.22784805 367.37194443 -284.58737946 2 2 -1 
80 2 2 1.00000000 128.19999695 448.90288544 365.20815659 -282.39022827 2 2 -1 
81 2 1 -1.00000000 129.10000610 448.93611526 361.99392700 -280.65637207 2 2 -1 
82 2 1 -1.00000000 129.10000610 450.15468216 359.29360199 -278.38895416 2 2 -1 
83 2 1 -1.00000000 129.10000610 451.93098068 355.94838715 -277.40849304 2 2 -1 
84 2 2 1.00000000 128.19999695 455.14556885 354.81232452 -278.80850983 2 2 -1 
85 2 2 1.00000000 128.19999695 454.42930222 353.11851883 -281.96144104 2 2 -1 
86 2 2 1.00000000 128.19999695 453.25598145 356.08013916 -284.42987061 2 2 -1 
87 2 1 -1.00000000 129.10000610 456.18729401 355.02392197 -286.78182983 2 2 -1 
88 2 2 1.00000000 128.19999695 457.87160492 354.37960434 -290.29188538 2 2 -1 
89 2 1 -1.00000000 129.10000610 461.30283356 355.43886566 -290.83351135 2 2 -1 
90 2 1 -1.00000000 129.10000610 463.17222977 358.06565094 -288.89931488 2 2 -1 
91 2 1 -1.00000000 129.10000610 466.50340652 358.66929245 -288.20971680 2 2 -1 
92 2 2 1.00000000 128.19999695 468.88892746 360.41059494 -290.35643768 2 2 -1 
93 2 1 -1.00000000 129.10000610 472.31858063 359.94954300 -288.92372131 2 2 -1 
94 2 2 1.00000000 128.19999695 475.55879593 358.58255386 -289.96678925 2 2 -1 
95 2 2 1.00000000 128.19999695 479.03444672 358.68388367 -291.29470062 2 2 -1 
96 2 2 1.00000000 128.19999695 482.46620178 358.92684555 -292.63622284 2 2 -1 
97 2 1 -1.00000000 129.10000610 484.60358429 355.98895264 -291.11725616 2 2 -1 
98 2 2 1.00000000 128.19999695 483.64169312 352.05186844 -290.94575500 2 2 -1 
99 2 1 -1.00000000 129.10000610 485.77726746 349.45038605 -288.79880524 2 2 -1 
100 2 2 1.00000000 128.19999695 487.57334137 350.25099945 -285.42526245 2 2 -1 
101 3 2 1.00000000 128.19999695 307.64017487 -140.90666962 91.58673096 1 -1 0 
102 3 1 -1.00000000 129.10000610 306.10602570 -138.73838806 88.81954956 1 -1 0 
103 3 2 1.00000000 128.19999695 303.77500916 -136.66416931 86.13356018 1 -1 0 
104 3 2 1.00000000 128.19999695 301.16645813 -139.28990173 86.05303955 1 -1 0 
105 3 2 1.00000000 128.19999695 298.30551147 -141.23580933 86.82902527 1 -1 0 
106 3 1 -1.00000000 129.10000610 294.60520935 -142.46700287 87.14167786 1 -1 0 
107 3 2 1.00000000 128.19999695 291.54731750 -141.97694397 84.66491699 1 -1 0 
108 3 1 -1.00000000 129.10000610 289.22982025 -144.71459961 86.15242767 1 -1 0 
109 3 1 -1.00000000 129.10000610 286.81199646 -147.22184372 84.74089050 1 -1 0 
110 3 1 -1.00000000 129.10000610 284.80537415 -146.22084427 81.90574646 1 -1 0 
111 3 2 1.00000000 128.19999695 285.04107666 -142.79992676 79.58587646 1 -1 0 
112 3 1 -1.00000000 129.10000610 284.55456543 -140.93734741 76.13111877 1 -1 0 
113 3 1 -1.00000000 129.10000610 287.28393555 -142.15853882 73.83329773 1 -1 0 
114 3 1 -1.00000000 129.10000610 286.06327057 -144.95087051 71.27384949 1 -1 0 
115 3 2 1.00000000 128.19999695 283.42280579 -144.15088654 68.43132782 1 -1 0 
116 3 2 1.00000000 128.19999695 284.00627136 -144.42803574 64.67301178 1 -1 0 
117 3 1 -1.00000000 129.10000610 287.45125580 -145.61232376 63.51048660 1 -1 0 
118 3 1 -1.00000000 129.10000610 290.72105408 -144.84572601 61.59222031 1 -1 0 
119 3 2 1.00000000 128.19999695 293.81132507 -144.12067795 64.04821014 1 -1 0 
120 3 1 -1.00000000 129.10000610 294.24658966 -142.35621643 67.47992706 1 -1 0 
121 3 1 -1.00000000 129.10000610 294.02212524 -139.56168365 69.78710175 1 -1 0 
122 3 1 -1.00000000 129.10000610 298.07168579 -138.31527710 69.94801331 1 -1 0 
123 3 2 1.00000000 128.19999695 298.15264130 -134.29411316 69.86083984 1 -1 0 
124 3 1 -1.00000000 129.10000610 300.63030243 -131.84425354 71.05209351 1 -1 0 
125 3 1 -1.00000000 129.10000610 300.11646271 -128.12143707 70.52711487 1 -1 0 
126 3 2 1.00000000 128.19999695 298.82859802 -126.32662201 73.42200470 1 -1 0 
127 3 2 1.00000000 128.19999695 297.64031982 -123.66409302 75.94384766 1 -1 0 
128 3 2 1.00000000 128.19999695 295.93921661 -120.50674438 76.91620636 1 -1 0 
129 3 2 1.00000000 128.19999695 295.91036224 -117.53675842 78.98221588 1 -1 0 
130 3 2 1.00000000 128.19999695 294.72972870 -113.68967438 79.31468964 1 -1 0 
131 3 1 -1.00000000 129.10000610 291.68854523 -111.61294556 78.97246552 1 -1 0 
132 3 1 -1.00000000 129.10000610 288.37129211 -113.22022247 79.45473480 1 -1 0 
133 3 1 -1.00000000 129.10000610 286.03404999 -111.71578979 82.62828064 1 -1 0 
134 3 2 1.00000000 128.19999695 284.54441071 -109.74494171 85.19001007 1 -1 0 
135 3 2 1.00000000 128.19999695 281.97492218 -111.37231445 87.38871765 1 -1 0 
136 3 2 1.00000000 128.19999695 278.87657166 -112.01075745 85.16575623 1 -1 0 
137 3 1 -1.00000000 129.10000610 278.16432953 -114.76430511 82.82061005 1 -1 0 
138 3 2 1.00000000 128.19999695 279.92660522 -118.07601929 83.40080261 1 -1 0 
139 3 1 -1.00000000 129.10000610 277.61974335 -120.34377289 84.84394073 1 -1 0 
140 3 1 -1.00000000 129.10000610 276.09223938 -123.82672882 85.12430573 1 -1 0 
141 3 1 -1.00000000 129.10000610 276.79911041 -126.46726990 87.65686035 1 -1 0 
142 3 2 1.00000000 128.19999695 275.17480469 -129.16852570 89.92164612 1 -1 0 
143 3 1 -1.00000000 129.10000610 272.18154144 -131.60056305 88.86345673 1 -1 0 
144 3 2 1.00000000 128.19999695 268.99074936 -132.19895935 88.99375916 1 -1 0 
145 3 2 1.00000000 128.19999695 265.40143585 -133.21036530 89.91947174 1 -1 0 
146 3 2 1.00000000 128.19999695 263.66237259 -132.36247253 93.28060150 1 -1 0 
147 3 1 -1.00000000 129.10000610 263.30813217 -134.72406006 96.37664032 1 -1 0 
148 3 2 1.00000000 128.19999695 263.99682236 -138.37651062 96.88194275 1 -1 0 
149 3 1 -1.00000000 129.10000610 262.36339188 -141.16180420 95.96021271 1 -1 0 
150 3 2 1.00000000 128.19999695 258.42574692 -142.20067596 96.07244110 1 -1 0 
151 4 2 1.00000000 128.19999695 -260.03113174 370.82394409 29.73052597 -1 2 0 
152 4 1 -1.00000000 129.10000610 -258.04577637 374.01735306 29.26008224 -1 2 0 
153 4 2 1.00000000 128.19999695 -254.93181229 374.47571564 31.03016090 -1 2 0 
154 4 2 1.00000000 128.19999695 -254.40634537 372.27156067 34.33935165 -1 2 0 
155 4 2 1.00000000 128.19999695 -255.20183563 372.36685944 37.91373444 -1 2 0 
156 4 1 -1.00000000 129.10000610 -255.95676804 375.12322998 40.39642334 -1 2 0 
157 4 2 1.00000000 128.19999695 -255.22056198 378.94898605 39.65642929 -1 2 0 
158 4 1 -1.00000000 129.10000610 -252.01925659 379.77664566 40.99208069 -1 2 0 
159 4 1 -1.00000000 129.10000610 -248.86927414 377.37263489 40.27253723 -1 2 0 
160 4 1 -1.00000000 129.10000610 -247.37441254 376.68545914 36.57580566 -1 2 0 
161 4 2 1.00000000 128.19999695 -245.14010620 377.87676239 33.78797913 -1 2 0 
162 4 1 -1.00000000 129.10000610 -241.62185669 377.98512268 32.86985016 -1 2 0 
163 4 1 -1.00000000 129.10000610 -239.64984512 380.18787766 30.25709534 -1 2 0 
164 4 1 -1.00000000 129.10000610 -240.70653534 381.70972061 26.88309860 -1 2 0 
165 4 2 1.00000000 128.19999695 -241.62316132 381.98430252 23.20882034 -1 2 0 
166 4 2 1.00000000 128.19999695 -241.49067307 381.61423492 19.59820938 -1 2 0 
167 4 1 -1.00000000 129.10000610 -243.99617767 383.45533752 17.62928963 -1 2 0 
168 4 1 -1.00000000 129.10000610 -246.18299484 383.67722702 14.67705345 -1 2 0 
169 4 2 1.00000000 128.19999695 -247.73297882 380.94425964 12.30815983 -1 2 0 
170 4 1 -1.00000000 129.10000610 -245.33901596 380.56797409 9.24107838 -1 2 0 
171 4 1 -1.00000000 129.10000610 -245.02931976 382.53231812 6.22440958 -1 2 0 
172 4 1 -1.00000000 129.10000610 -244.97278595 385.44826126 3.80417943 -1 2 0 
173 4 2 1.00000000 128.19999695 -245.54658127 389.05795097 3.25003672 -1 2 0 
174 4 1 -1.00000000 129.10000610 -246.20832825 392.69889641 4.87751961 -1 2 0 
175 4 1 -1.00000000 129.10000610 -247.95964050 394.34005928 7.80839396 -1 2 0 
176 4 2 1.00000000 128.19999695 -246.97705460 397.38937569 9.93136406 -1 2 0 
177 4 2 1.00000000 128.19999695 -246.18828583 400.81206417 10.89757347 -1 2 0 
178 4 2 1.00000000 128.19999695 -249.24545288 402.86577129 9.71700191 -1 2 0 
179 4 2 1.00000000 128.19999695 -252.58005524 404.43194199 8.88361645 -1 2 0 
180 4 2 1.00000000 128.19999695 -255.47357941 401.98896885 7.98057079 -1 2 0 
181 4 1 -1.00000000 129.10000610 -254.90798187 399.03816986 10.47256851 -1 2 0 
182 4 1 -1.00000000 129.10000610 -256.73282242 399.83214474 13.85480404 -1 2 0 
183 4 1 -1.00000000 129.10000610 -255.29315186 400.10732365 17.21467018 -1 2 0 
184 4 2 1.00000000 128.19999695 -252.56463242 401.68586922 19.00153542 -1 2 0 
185 4 2 1.00000000 128.19999695 -251.01094437 404.85297203 19.52583885 -1 2 0 
186 4 2 1.00000000 128.19999695 -248.79046631 405.47119045 22.62533569 -1 2 0 
187 4 1 -1.00000000 129.10000610 -247.51722336 403.29867649 25.24246788 -1 2 0 
188 4 2 1.00000000 128.19999695 -245.19718933 400.20616150 24.15769577 -1 2 0 
189 4 1 -1.00000000 129.10000610 -246.63880157 399.98439789 20.54485893 -1 2 0 
190 4 1 -1.00000000 129.10000610 -243.57621765 400.57290268 18.42994690 -1 2 0 
191 4 1 -1.00000000 129.10000610 -241.25382614 396.95637512 18.46229553 -1 2 0 
192 4 2 1.00000000 128.19999695 -243.54656219 394.02309990 18.97988892 -1 2 0 
193 4 1 -1.00000000 129.10000610 -243.36564636 391.76790047 16.00880623 -1 2 0 
194 4 2 1.00000000 128.19999695 -241.20770264 389.63392448 13.49267769 -1 2 0 
195 4 2 1.00000000 128.19999695 -242.80632401 388.83576775 10.04453659 -1 2 0 
196 4 2 1.00000000 128.19999695 -240.04229355 386.84753799 7.78953743 -1 2 0 
197 4 1 -1.00000000 129.10000610 -238.06100082 384.56636047 5.55227184 -1 2 0 
198 4 2 1.00000000 128.19999695 -235.81966209 381.59737396 4.53670120 -1 2 0 
199 4 1 -1.00000000 129.10000610 -238.89591026 379.44645691 3.50167036 -1 2 0 
200 4 2 1.00000000 128.19999695 -241.01052856 380.90571594 0.58551407 -1 2 0 
201 5 2 1.00000000 128.19999695 -297.85466003 -261.91104889 -263.11963272 -1 -1 -1 
202 5 1 -1.00000000 129.10000610 -296.44882202 -265.59774780 -263.26710129 -1 -1 -1 
203 5 2 1.00000000 128.19999695 -293.57858276 -266.95916748 -260.79799652 -1 -1 -1 
204 5 2 1.00000000 128.19999695 -293.03390503 -270.64051056 -262.03648758 -1 -1 -1 
205 5 2 1.00000000 128.19999695 -295.05725098 -272.55135345 -264.81945801 -1 -1 -1 
206 5 1 -1.00000000 129.10000610 -294.92876434 -270.43954849 -267.94511795 -1 -1 -1 
207 5 2 1.00000000 128.19999695 -292.13398743 -268.23807526 -269.12204361 -1 -1 -1 
208 5 1 -1.00000000 129.10000610 -288.65229797 -267.42904663 -268.55462265 -1 -1 -1 
209 5 1 -1.00000000 129.10000610 -286.46860504 -269.77489090 -270.37323761 -1 -1 -1 
210 5 1 -1.00000000 129.10000610 -282.61795807 -270.27743912 -271.60450745 -1 -1 -1 
211 5 2 1.00000000 128.19999695 -280.78304291 -273.43528748 -271.46311188 -1 -1 -1 
212 5 1 -1.00000000 129.10000610 -280.17668915 -276.87490082 -270.56649017 -1 -1 -1 
213 5 1 -1.00000000 129.10000610 -278.28308105 -279.60185242 -269.78446579 -1 -1 -1 
214 5 1 -1.00000000 129.10000610 -275.28777313 -278.97931671 -267.11277390 -1 -1 -1 
215 5 2 1.00000000 128.19999695 -272.59661865 -281.08993530 -269.22169876 -1 -1 -1 
216 5 2 1.00000000 128.19999695 -272.05010223 -284.80815125 -270.17844772 -1 -1 -1 
217 5 1 -1.00000000 129.10000610 -272.57170105 -286.50251007 -266.89601898 -1 -1 -1 
218 5 1 -1.00000000 129.10000610 -268.77211380 -286.84905243 -265.62578201 -1 -1 -1 
219 5 2 1.00000000 128.19999695 -268.70569992 -283.86725616 -263.23990250 -1 -1 -1 
220 5 1 -1.00000000 129.10000610 -265.69765472 -282.34965515 -262.08072281 -1 -1 -1 
221 5 1 -1.00000000 129.10000610 -264.89115143 -279.19078827 -260.24229813 -1 -1 -1 
222 5 1 -1.00000000 129.10000610 -264.40306473 -276.31182098 -257.99424744 -1 -1 -1 
223 5 2 1.00000000 128.19999695 -262.68406677 -275.22547913 -254.51890945 -1 -1 -1 
224 5 1 -1.00000000 129.10000610 -259.60654068 -273.81140900 -256.31441116 -1 -1 -1 
225 5 1 -1.00000000 129.10000610 -256.58108902 -274.85868835 -253.83999634 -1 -1 -1 
226 5 2 1.00000000 128.19999695 -257.87833405 -274.83915710 -250.09909439 -1 -1 -1 
227 5 2 1.00000000 128.19999695 -257.85126495 -274.35216522 -246.13657761 -1 -1 -1 
228 5 2 1.00000000 128.19999695 -255.90745926 -271.69946289 -245.12250137 -1 -1 -1 
229 5 2 1.00000000 128.19999695 -257.42830276 -268.06294250 -245.25860977 -1 -1 -1 
230 5 2 1.00000000 128.19999695 -260.22594833 -266.48062515 -246.93481827 -1 -1 -1 
231 5 1 -1.00000000 129.10000610 -259.74997711 -265.05859375 -250.34590530 -1 -1 -1 
232 5 1 -1.00000000 129.10000610 -257.08143997 -262.25164413 -250.35389328 -1 -1 -1 
233 5 1 -1.00000000 129.10000610 -253.45220184 -263.54442596 -249.14517212 -1 -1 -1 
234 5 2 1.00000000 128.19999695 -252.97240067 -266.83076859 -251.00308990 -1 -1 -1 
235 5 2 1.00000000 128.19999695 -255.19730377 -266.34431839 -254.24164581 -1 -1 -1 
236 5 2 1.00000000 128.19999695 -256.08079910 -264.16586304 -257.07803345 -1 -1 -1 
237 5 1 -1.00000000 129.10000610 -255.36538315 -260.37524033 -256.66583252 -1 -1 -1 
238 5 2 1.00000000 128.19999695 -255.37033844 -257.47212982 -259.24270248 -1 -1 -1 
239 5 1 -1.00000000 129.10000610 -255.35862732 -255.71809006 -262.72830200 -1 -1 -1 
240 5 1 -1.00000000 129.10000610 -253.73517227 -254.42559052 -266.07567978 -1 -1 -1 
241 5 1 -1.00000000 129.10000610 -252.96983337 -255.11175537 -269.51160812 -1 -1 -1 
242 5 2 1.00000000 128.19999695 -253.37933731 -252.09839249 -271.97768402 -1 -1 -1 
243 5 1 -1.00000000 129.10000610 -251.05561829 -251.85383224 -274.81743622 -1 -1 -1 
244 5 2 1.00000000 128.19999695 -251.87636566 -254.50686646 -277.70122528 -1 -1 -1 
245 5 2 1.00000000 128.19999695 -250.00087357 -258.08674622 -278.13807678 -1 -1 -1 
246 5 2 1.00000000 128.19999695 -249.15847397 -260.43943787 -275.21803284 -1 -1 -1 
247 5 1 -1.00000000 129.10000610 -246.46498108 -263.07944489 -274.29464722 -1 -1 -1 
248 5 2 1.00000000 128.19999695 -244.34469604 -265.11854172 -276.45681000 -1 -1 -1 
249 5 1 -1.00000000 129.10000610 -242.93592072 -266.41074371 -279.57247925 -1 -1 -1 
250 5 2 1.00000000 128.19999695 -243.97138596 -265.90155411 -283.13619995 -1 -1 -1 
251 6 2 1.00000000 128.19999695 385.76770401 -402.50897598 -96.87255096 2 -2 0 
252 6 1 -1.00000000 129.10000610 383.94855881 -399.26712132 -96.14089966 2 -2 0 
253 6 2 1.00000000 128.19999695 381.12248993 -398.61782074 -93.68887329 2 -2 0 
254 6 2 1.00000000 128.19999695 380.83641434 -400.67759991 -90.51733398 2 -2 0 
255 6 2 1.00000000 128.19999695 378.17987442 -400.47540569 -87.71104431 2 -2 0 
256 6 1 -1.00000000 129.10000610 374.92911911 -400.39370918 -85.68560791 2 -2 0 
257 6 2 1.00000000 128.19999695 376.51171494 -399.88228130 -82.03983307 2 -2 0 
258 6 1 -1.00000000 129.10000610 377.86185455 -399.86101151 -78.51535034 2 -2 0 
259 6 1 -1.00000000 129.10000610 378.33617401 -396.19432068 -77.96493530 2 -2 0 
260 6 1 -1.00000000 129.10000610 375.21908188 -395.01562691 -75.81433868 2 -2 0 
261 6 2 1.00000000 128.19999695 376.57457733 -395.25817871 -72.09696960 2 -2 0 
262 6 1 -1.00000000 129.10000610 377.34317780 -397.70652580 -69.58599854 2 -2 0 
263 6 1 -1.00000000 129.10000610 377.81418610 -395.88240242 -66.45891571 2 -2 0 
264 6 1 -1.00000000 129.10000610 380.27016449 -392.74015427 -65.53141022 2 -2 0 
265 6 2 1.00000000 128.19999695 383.27742004 -391.67338371 -63.17321777 2 -2 0 
266 6 2 1.00000000 128.19999695 384.65550423 -392.40161705 -59.55285263 2 -2 0 
267 6 1 -1.00000000 129.10000610 387.09480667 -394.33510971 -57.35683441 2 -2 0 
268 6 1 -1.00000000 129.10000610 387.40505028 -397.85996628 -58.62903595 2 -2 0 
269 6 2 1.00000000 128.19999695 389.03716278 -398.55535889 -62.12557602 2 -2 0 
270 6 1 -1.00000000 129.10000610 392.39046288 -396.41951942 -62.65201569 2 -2 0 
271 6 1 -1.00000000 129.10000610 393.08740616 -392.73928833 -62.09930420 2 -2 0 
272 6 1 -1.00000000 129.10000610 394.15816498 -389.59005928 -60.04804230 2 -2 0 
273 6 2 1.00000000 128.19999695 394.00661087 -389.27377129 -56.32233810 2 -2 0 
274 6 1 -1.00000000 129.10000610 392.98720169 -392.45443726 -54.20470047 2 -2 0 
275 6 1 -1.00000000 129.10000610 395.03817368 -395.09893799 -54.78187180 2 -2 0 
276 6 2 1.00000000 128.19999695 396.57089996 -397.65960884 -57.26301575 2 -2 0 
277 6 2 1.00000000 128.19999695 398.95754814 -399.25452709 -59.23817825 2 -2 0 
278 6 2 1.00000000 128.19999695 401.14690495 -401.84549618 -61.40799332 2 -2 0 
279 6 2 1.00000000 128.19999695 404.76083851 -402.10840797 -59.89464951 2 -2 0 
280 6 2 1.00000000 128.19999695 406.71486330 -404.57502747 -57.40053558 2 -2 0 
281 6 1 -1.00000000 129.10000610 405.79665947 -404.47302532 -53.80376434 2 -2 0 
282 6 1 -1.00000000 129.10000610 407.76671171 -402.06522179 -52.01745987 2 -2 0 
283 6 1 -1.00000000 129.10000610 410.53792048 -400.45399284 -54.30659485 2 -2 0 
284 6 2 1.00000000 128.19999695 411.67994642 -399.13871956 -57.89943695 2 -2 0 
285 6 2 1.00000000 128.19999695 411.66122365 -396.07779312 -60.23028564 2 -2 0 
286 6 2 1.00000000 128.19999695 408.62083912 -394.87492943 -62.06095505 2 -2 0 
287 6 1 -1.00000000 129.10000610 408.59743452 -390.99000931 -62.01494217 2 -2 0 
288 6 2 1.00000000 128.19999695 409.51578426 -387.71681786 -63.26467514 2 -2 0 
289 6 1 -1.00000000 129.10000610 410.63630009 -385.11125755 -66.40865326 2 -2 0 
290 6 1 -1.00000000 129.10000610 411.47816563 -381.46384048 -67.91182709 2 -2 0 
291 6 1 -1.00000000 129.10000610 412.02345419 -380.22647476 -71.44599152 2 -2 0 
292 6 2 1.00000000 128.19999695 411.86040735 -383.16411209 -74.00966644 2 -2 0 
293 6 1 -1.00000000 129.10000610 409.85798931 -381.68819046 -76.89891052 2 -2 0 
294 6 2 1.00000000 128.19999695 411.34084368 -380.90578079 -80.34714508 2 -2 0 
295 6 2 1.00000000 128.19999695 412.25935268 -383.58516884 -82.43833923 2 -2 0 
296 6 2 1.00000000 128.19999695 410.86316943 -386.44113731 -84.51278687 2 -2 0 
297 6 1 -1.00000000 129.10000610 408.07204103 -385.91657829 -87.10412598 2 -2 0 
298 6 2 1.00000000 128.19999695 405.33228493 -388.45311737 -87.79869843 2 -2 0 
299 6 1 -1.00000000 129.10000610 403.30993938 -388.79905319 -91.00389862 2 -2 0 
300 6 2 1.00000000 128.19999695 400.33622265 -389.65541840 -93.27060699 2 -2 0 
301 7 2 1.00000000 128.19999695 -71.13397217 18.55748558 -923.32766724 0 0 -4 
302 7 1 -1.00000000 129.10000610 -67.54228973 17.90370941 -921.69834900 0 0 -4 
303 7 2 1.00000000 128.19999695 -65.08966064 20.44964981 -920.59436798 0 0 -4 
304 7 2 1.00000000 128.19999695 -63.12279510 23.75287628 -921.10823059 0 0 -4 
305 7 2 1.00000000 128.19999695 -60.14036560 26.10346413 -920.14577484 0 0 -4 
306 7 1 -1.00000000 129.10000610 -58.61052322 27.48449898 -923.29598236 0 0 -4 
307 7 2 1.00000000 128.19999695 -54.96872330 28.20688629 -923.30374146 0 0 -4 
308 7 1 -1.00000000 129.10000610 -51.50282288 26.28810120 -922.97750854 0 0 -4 
309 7 1 -1.00000000 129.10000610 -50.75834274 23.02795601 -922.88723755 0 0 -4 
310 7 1 -1.00000000 129.10000610 -52.98973083 20.13869095 -922.18119049 0 0 -4 
311 7 2 1.00000000 128.19999695 -56.31608200 18.51631546 -920.88304138 0 0 -4 
312 7 1 -1.00000000 129.10000610 -59.04732513 17.82743835 -918.01597595 0 0 -4 
313 7 1 -1.00000000 129.10000610 -61.65220642 18.43365860 -914.87785339 0 0 -4 
314 7 1 -1.00000000 129.10000610 -65.11984253 16.81653023 -914.96372986 0 0 -4 
315 7 2 1.00000000 128.19999695 -65.27422333 14.24986267 -917.52539825 0 0 -4 
316 7 2 1.00000000 128.19999695 -66.47141266 11.29840469 -919.62640381 0 0 -4 
317 7 1 -1.00000000 129.10000610 -65.75725555 9.52878571 -922.57820129 0 0 -4 
318 7 1 -1.00000000 129.10000610 -66.57199860 9.01309776 -926.22018433 0 0 -4 
319 7 2 1.00000000 128.19999695 -66.79400635 5.54294491 -927.88867950 0 0 -4 
320 7 1 -1.00000000 129.10000610 -68.90657043 2.81107640 -928.34832001 0 0 -4 
321 7 1 -1.00000000 129.10000610 -70.75953674 0.26649293 -930.73994446 0 0 -4 
322 7 1 -1.00000000 129.10000610 -69.80185699 -3.33643174 -932.30406952 0 0 -4 
323 7 2 1.00000000 128.19999695 -67.52862549 -6.30244684 -931.36567688 0 0 -4 
324 7 1 -1.00000000 129.10000610 -68.75739288 -9.96325397 -931.89057159 0 0 -4 
325 7 1 -1.00000000 129.10000610 -69.55625153 -13.61224270 -933.44554138 0 0 -5 
326 7 2 1.00000000 128.19999695 -70.79389191 -16.20302582 -930.80214691 0 0 -4 
327 7 2 1.00000000 128.19999695 -69.29092407 -19.03935242 -928.73053741 0 0 -4 
328 7 2 1.00000000 128.19999695 -66.25170135 -19.89284897 -926.50891113 0 0 -4 
329 7 2 1.00000000 128.19999695 -62.93124771 -18.45904350 -924.89369965 0 0 -4 
330 7 2 1.00000000 128.19999695 -61.61154938 -15.09177971 -925.86064148 0 0 -4 
331 7 1 -1.00000000 129.10000610 -62.29819870 -11.33329487 -926.52223206 0 0 -4 
332 7 1 -1.00000000 129.10000610 -62.12975693 -11.12287045 -930.58398438 0 0 -4 
333 7 1 -1.00000000 129.10000610 -62.93430328 -13.12123871 -933.60980225 0 0 -5 
334 7 2 1.00000000 128.19999695 -61.35972595 -13.70234394 -937.13378143 0 0 -5 
335 7 2 1.00000000 128.19999695 -57.83113861 -15.10432720 -938.09554291 0 0 -5 
336 7 2 1.00000000 128.19999695 -54.76971436 -14.83370399 -935.45629883 0 0 -5 
337 7 1 -1.00000000 129.10000610 -51.38710403 -13.65741253 -937.04542542 0 0 -5 
338 7 2 1.00000000 128.19999695 -49.61796188 -17.35104942 -938.01847839 0 0 -5 
339 7 1 -1.00000000 129.10000610 -46.07096863 -18.36358261 -939.53636169 0 0 -5 
340 7 1 -1.00000000 129.10000610 -44.70926666 -17.36763191 -943.21846771 0 0 -5 
341 7 1 -1.00000000 129.10000610 -42.34202194 -14.05775738 -943.57521057 0 0 -5 
342 7 2 1.00000000 128.19999695 -43.54523087 -10.63944340 -944.82907867 0 0 -5 
343 7 1 -1.00000000 129.10000610 -41.16038895 -8.39713001 -945.61924744 0 0 -5 
344 7 2 1.00000000 128.19999695 -37.21221542 -8.94904900 -945.67134094 0 0 -5 
345 7 2 1.00000000 128.19999695 -36.80368042 -10.37685204 -942.32325745 0 0 -5 
346 7 2 1.00000000 128.19999695 -34.14274979 -11.13928223 -939.89285278 0 0 -5 
347 7 1 -1.00000000 129.10000610 -30.29424286 -10.61286640 -939.35268402 0 0 -5 
348 7 2 1.00000000 128.19999695 -26.35474205 -10.17718983 -939.74852753 0 0 -5 
349 7 1 -1.00000000 129.10000610 -23.91955566 -7.46170330 -941.35326385 0 0 -5 
350 7 2 1.00000000 128.19999695 -20.66014862 -9.20643330 -942.22389984 0 0 -5 
351 8 2 1.00000000 128.19999695 32.69916916 -102.19521332 598.62796021 0 0 3 
352 8 1 -1.00000000 129.10000610 29.57354164 -104.49388123 598.64088058 0 -1 3 
353 8 2 1.00000000 128.19999695 30.48447418 -107.78506470 600.37136269 0 -1 3 
354 8 2 1.00000000 128.19999695 30.14820862 -108.94996643 604.14829445 0 -1 3 
355 8 2 1.00000000 128.19999695 27.47699738 -108.23525238 606.95611095 0 -1 3 
356 8 1 -1.00000000 129.10000610 27.51058960 -104.53211975 606.56034470 0 -1 3 
357 8 2 1.00000000 128.19999695 29.43194199 -101.94777679 604.69576645 0 0 3 
358 8 1 -1.00000000 129.10000610 32.77449799 -102.09989929 606.71161747 0 0 3 
359 8 1 -1.00000000 129.10000610 36.67976379 -102.42198944 607.48366547 0 0 3 
360 8 1 -1.00000000 129.10000610 38.27638626 -102.27375793 610.97904396 0 0 3 
361 8 2 1.00000000 128.19999695 41.46871185 -101.81179810 612.79126358 0 0 3 
362 8 1 -1.00000000 129.10000610 42.36078644 -104.63685608 615.31621122 0 -1 3 
363 8 1 -1.00000000 129.10000610 39.36083984 -107.01278687 615.40034533 0 -1 3 
364 8 1 -1.00000000 129.10000610 36.51454163 -107.30634308 617.58839798 0 -1 3 
365 8 2 1.00000000 128.19999695 36.38822937 -110.04351044 620.30611861 0 -1 3 
366 8 2 1.00000000 128.19999695 35.70246124 -113.23097992 622.23443799 0 -1 3 
367 8 1 -1.00000000 129.10000610 34.08650208 -114.42146301 625.18229127 0 -1 3 
368 8 1 -1.00000000 129.10000610 34.78816223 -112.07841492 627.90808582 0 -1 3 
369 8 2 1.00000000 128.19999695 35.57186508 -108.67962646 626.39400482 0 -1 3 
370 8 1 -1.00000000 129.10000610 36.19902039 -104.89318085 626.85413837 0 -1 3 
371 8 1 -1.00000000 129.10000610 35.37967682 -101.33210754 625.01574492 0 0 3 