ITEM: TIMESTEP
44900000 
ITEM: NUMBER OF ATOMS 
25000 
ITEM: BOX BOUNDS pp pp pp 
-103.678017 103.678017 
-103.678017 103.678017 
-103.678017 103.678017 
ITEM: ATOMS id mol type q mass xu yu zu ix iy iz 
1 1 2 1.00000000 128.19999695 574.32300568 -150.10133362 -268.77721024 3 -1 -1 
2 1 1 -1.00000000 129.10000610 577.77303314 -147.91294098 -268.97635269 3 -1 -1 
3 1 2 1.00000000 128.19999695 580.61072922 -150.08443069 -267.97489929 3 -1 -1 
4 1 2 1.00000000 128.19999695 581.71199799 -153.48836899 -269.29838562 3 -1 -1 
5 1 2 1.00000000 128.19999695 584.36570358 -153.46245956 -272.05710602 3 -1 -1 
6 1 1 -1.00000000 129.10000610 585.81089020 -152.86118698 -275.30481720 3 -1 -1 
7 1 2 1.00000000 128.19999695 589.29765320 -152.01622009 -276.76203918 3 -1 -1 
8 1 1 -1.00000000 129.10000610 592.04326248 -154.06396866 -274.62718201 3 -1 -1 
9 1 1 -1.00000000 129.10000610 591.28815460 -152.97313690 -271.13322067 3 -1 -1 
10 1 1 -1.00000000 129.10000610 591.18035507 -154.66565704 -267.73387909 3 -1 -1 
11 1 2 1.00000000 128.19999695 590.35670090 -157.47204971 -265.34975433 3 -1 -1 
12 1 1 -1.00000000 129.10000610 588.34576416 -161.00178528 -264.58031464 3 -1 -1 
13 1 1 -1.00000000 129.10000610 586.97357178 -162.82118225 -267.80826187 3 -1 -1 
14 1 1 -1.00000000 129.10000610 584.32583618 -160.21816635 -269.20578766 3 -1 -1 
15 1 2 1.00000000 128.19999695 585.78053665 -160.30965424 -272.85745239 3 -1 -1 
16 1 2 1.00000000 128.19999695 589.16688156 -160.22540283 -274.57071686 3 -1 -1 
17 1 1 -1.00000000 129.10000610 589.43256378 -162.31932449 -277.61025238 3 -1 -1 
18 1 1 -1.00000000 129.10000610 589.63082886 -166.01398087 -276.39463806 3 -1 -1 
19 1 2 1.00000000 128.19999695 591.34947777 -168.61667252 -274.70041656 3 -1 -1 
20 1 1 -1.00000000 129.10000610 594.75347710 -167.06967926 -274.99763489 3 -1 -1 
21 1 1 -1.00000000 129.10000610 597.71905518 -165.31861496 -273.44348907 3 -1 -1 
22 1 1 -1.00000000 129.10000610 599.32151604 -163.28301620 -276.43375397 3 -1 -1 
23 1 2 1.00000000 128.19999695 598.18681908 -159.46425247 -276.18062592 3 -1 -1 
24 1 1 -1.00000000 129.10000610 600.53185081 -157.77318954 -278.43227386 3 -1 -1 
25 1 1 -1.00000000 129.10000610 598.96948433 -155.70590210 -281.18527985 3 -1 -1 
26 1 2 1.00000000 128.19999695 594.98164368 -155.87705994 -280.28838348 3 -1 -1 
27 1 2 1.00000000 128.19999695 592.96976089 -158.96700287 -280.94214630 3 -1 -1 
28 1 2 1.00000000 128.19999695 591.88586235 -158.28334045 -284.32173157 3 -1 -1 
29 1 2 1.00000000 128.19999695 590.47402000 -160.76430130 -286.29231262 3 -1 -1 
30 1 2 1.00000000 128.19999695 588.83356857 -164.20992661 -286.07316589 3 -1 -1 
31 1 1 -1.00000000 129.10000610 587.13667679 -167.03713989 -284.19985962 3 -1 -1 
32 1 1 -1.00000000 129.10000610 586.32342148 -170.30367661 -282.84005737 3 -1 -1 
33 1 1 -1.00000000 129.10000610 582.29490280 -170.45333481 -283.74446106 3 -1 -1 
34 1 2 1.00000000 128.19999695 580.43411636 -168.29519272 -280.91198730 3 -1 -1 
35 1 2 1.00000000 128.19999695 579.96195221 -165.01665115 -282.91433716 3 -1 -1 
36 1 2 1.00000000 128.19999695 578.76966476 -161.14339447 -281.79655457 3 -1 -1 
37 1 1 -1.00000000 129.10000610 581.95995331 -158.94635391 -281.25543213 3 -1 -1 
38 1 2 1.00000000 128.19999695 584.01261902 -156.05957794 -281.37326050 3 -1 -1 
39 1 1 -1.00000000 129.10000610 581.19806290 -153.83379364 -282.94992065 3 -1 -1 
40 1 1 -1.00000000 129.10000610 581.46917343 -152.14749527 -286.05760193 3 -1 -1 
41 1 1 -1.00000000 129.10000610 580.30644226 -148.89127350 -287.93025970 3 -1 -1 
42 1 2 1.00000000 128.19999695 580.26017380 -147.47421646 -291.40489960 3 -1 -1 
43 1 1 -1.00000000 129.10000610 583.13260269 -145.15457153 -291.53625488 3 -1 -1 
44 1 2 1.00000000 128.19999695 584.16899109 -143.54160309 -295.32353973 3 -1 -1 
45 1 2 1.00000000 128.19999695 587.57059860 -142.17973328 -295.70327759 3 -1 -1 
46 1 2 1.00000000 128.19999695 590.79709053 -141.35754395 -293.89810944 3 -1 -1 
47 1 1 -1.00000000 129.10000610 593.90113068 -141.08187103 -296.55899811 3 -1 -1 
48 1 2 1.00000000 128.19999695 596.36812210 -138.73017120 -295.11968994 3 -1 -1 
49 1 1 -1.00000000 129.10000610 596.83722687 -139.03768158 -291.39443970 3 -1 -1 
50 1 2 1.00000000 128.19999695 598.14451408 -142.19250488 -289.58383942 3 -1 -1 
51 2 2 1.00000000 128.19999695 534.48474121 370.10890198 -293.47841644 3 2 -1 
52 2 1 -1.00000000 129.10000610 537.48183441 367.87483215 -294.45861053 3 2 -1 
53 2 2 1.00000000 128.19999695 540.12274933 365.79170609 -296.10652161 3 2 -1 
54 2 2 1.00000000 128.19999695 543.50531006 367.29578781 -296.48860168 3 2 -1 
55 2 2 1.00000000 128.19999695 546.49314117 369.66622543 -296.45768738 3 2 -1 
56 2 1 -1.00000000 129.10000610 549.16389465 369.23899841 -293.68306732 3 2 -1 
57 2 2 1.00000000 128.19999695 549.73757935 369.89760971 -290.07146454 3 2 -1 
58 2 1 -1.00000000 129.10000610 550.86668396 367.32368088 -287.72420502 3 2 -1 
59 2 1 -1.00000000 129.10000610 550.70458221 364.16016769 -285.57463074 3 2 -1 
60 2 1 -1.00000000 129.10000610 548.09243011 361.34590149 -284.10778809 3 2 -1 
61 2 2 1.00000000 128.19999695 546.12087250 358.61470032 -285.82005310 3 2 -1 
62 2 1 -1.00000000 129.10000610 547.85279083 355.41698837 -286.10350037 3 2 -1 
63 2 1 -1.00000000 129.10000610 550.09363556 352.87879181 -284.50090027 3 2 -1 
64 2 1 -1.00000000 129.10000610 552.77722931 350.60783386 -282.74617767 3 2 -1 
65 2 2 1.00000000 128.19999695 551.35488129 347.84146118 -280.63532257 3 2 -1 
66 2 2 1.00000000 128.19999695 548.81017303 344.75877380 -281.33572388 3 2 -1 
67 2 1 -1.00000000 129.10000610 547.18609619 344.10996246 -284.74482727 3 2 -1 
68 2 1 -1.00000000 129.10000610 549.27619171 343.49333191 -287.93875885 3 2 -1 
69 2 2 1.00000000 128.19999695 552.06265259 341.19177246 -289.11434174 3 2 -1 
70 2 1 -1.00000000 129.10000610 555.37734222 340.14869690 -287.66580200 3 2 -1 
71 2 1 -1.00000000 129.10000610 558.11724472 341.59227753 -285.09844208 3 2 -1 
72 2 1 -1.00000000 129.10000610 561.71859741 340.55165100 -285.65092468 3 2 -1 
73 2 2 1.00000000 128.19999695 564.57297897 339.81587219 -287.51583862 3 2 -1 
74 2 1 -1.00000000 129.10000610 567.14545059 342.26756287 -285.92449188 3 2 -1 
75 2 1 -1.00000000 129.10000610 567.54246140 341.46549988 -282.03727722 3 2 -1 
76 2 2 1.00000000 128.19999695 570.75388718 342.78316498 -280.30654144 3 2 -1 
77 2 2 1.00000000 128.19999695 571.17955017 346.72048950 -281.40073395 3 2 -1 
78 2 2 1.00000000 128.19999695 569.13116074 349.02953339 -283.38878632 3 2 -1 
79 2 2 1.00000000 128.19999695 565.29861069 348.26185608 -283.54293060 3 2 -1 
80 2 2 1.00000000 128.19999695 562.37475586 345.84578705 -282.43961334 3 2 -1 
81 2 1 -1.00000000 129.10000610 560.28055573 344.81034088 -279.33578491 3 2 -1 
82 2 1 -1.00000000 129.10000610 561.45299149 344.71901703 -275.63423157 3 2 -1 
83 2 1 -1.00000000 129.10000610 563.46957016 341.23596191 -274.50938416 3 2 -1 
84 2 2 1.00000000 128.19999695 563.97407532 337.60981750 -274.87863159 3 2 -1 
85 2 2 1.00000000 128.19999695 563.66587448 336.57820892 -278.73778534 3 2 -1 
86 2 2 1.00000000 128.19999695 560.45593643 336.13304138 -280.63092804 3 2 -1 
87 2 1 -1.00000000 129.10000610 557.74528503 334.23174286 -278.74347687 3 2 -1 
88 2 2 1.00000000 128.19999695 558.75141907 330.37407684 -279.06231689 3 2 -1 
89 2 1 -1.00000000 129.10000610 562.27698135 329.35506439 -277.48606873 3 2 -1 
90 2 1 -1.00000000 129.10000610 564.25484085 329.66552734 -274.16913605 3 2 -1 
91 2 1 -1.00000000 129.10000610 565.43435287 327.90451813 -271.28528214 3 2 -1 
92 2 2 1.00000000 128.19999695 567.69361496 326.09735870 -268.46247482 3 2 -1 
93 2 1 -1.00000000 129.10000610 571.30187225 325.86377716 -268.41249084 3 2 -1 
94 2 2 1.00000000 128.19999695 574.60757828 327.42192078 -268.97089386 3 2 -1 
95 2 2 1.00000000 128.19999695 574.86849976 330.48332977 -267.24316025 3 2 -1 
96 2 2 1.00000000 128.19999695 574.61225128 334.37276459 -266.64520645 3 2 -1 
97 2 1 -1.00000000 129.10000610 573.94144821 338.20762634 -266.80336761 3 2 -1 
98 2 2 1.00000000 128.19999695 571.67300415 339.77861023 -264.20372391 3 2 -1 
99 2 1 -1.00000000 129.10000610 569.71503067 341.17378998 -261.30013657 3 2 -1 
100 2 2 1.00000000 128.19999695 569.44080353 340.36849976 -257.92074585 3 2 -1 
101 3 2 1.00000000 128.19999695 323.27387238 -94.39949799 87.53657532 2 0 0 
102 3 1 -1.00000000 129.10000610 324.72638702 -97.53592682 86.05354309 2 0 0 
103 3 2 1.00000000 128.19999695 327.50290680 -99.02964020 87.88212585 2 0 0 
104 3 2 1.00000000 128.19999695 329.75679016 -97.51030731 90.38016510 2 0 0 
105 3 2 1.00000000 128.19999695 331.47496033 -99.41283417 93.23737335 2 0 0 
106 3 1 -1.00000000 129.10000610 332.87459564 -103.55784607 93.22455597 2 0 0 
107 3 2 1.00000000 128.19999695 333.63072205 -105.90627289 90.56191254 2 -1 0 
108 3 1 -1.00000000 129.10000610 335.57132721 -103.48397827 88.04202271 2 0 0 
109 3 1 -1.00000000 129.10000610 333.58097839 -100.73494720 85.97810364 2 0 0 
110 3 1 -1.00000000 129.10000610 332.03415680 -101.32017517 82.60760498 2 0 0 
111 3 2 1.00000000 128.19999695 329.28115082 -102.79647827 80.18323517 2 0 0 
112 3 1 -1.00000000 129.10000610 326.34477997 -100.35025787 80.38548279 2 0 0 
113 3 1 -1.00000000 129.10000610 324.77254486 -99.94492340 76.71759033 2 0 0 
114 3 1 -1.00000000 129.10000610 323.15554047 -103.16716003 75.87128448 2 0 0 
115 3 2 1.00000000 128.19999695 324.50124359 -106.56773376 74.91706848 2 -1 0 
116 3 2 1.00000000 128.19999695 326.69937897 -108.41719055 76.97845459 2 -1 0 
117 3 1 -1.00000000 129.10000610 328.49097443 -111.67215729 78.18963623 2 -1 0 
118 3 1 -1.00000000 129.10000610 327.03224182 -115.26203918 77.95493317 2 -1 0 
119 3 2 1.00000000 128.19999695 325.37985992 -116.91388702 80.95938110 2 -1 0 
120 3 1 -1.00000000 129.10000610 324.93698883 -118.69933319 84.32163239 2 -1 0 
121 3 1 -1.00000000 129.10000610 323.65018463 -121.46061707 86.95291138 2 -1 0 
122 3 1 -1.00000000 129.10000610 321.60186768 -121.18534088 90.30226135 2 -1 0 
123 3 2 1.00000000 128.19999695 318.32341003 -119.40412903 89.45090485 2 -1 0 
124 3 1 -1.00000000 129.10000610 317.82523346 -115.66491699 90.97600555 2 -1 0 
125 3 1 -1.00000000 129.10000610 315.18132782 -113.86189270 88.84124756 2 -1 0 
126 3 2 1.00000000 128.19999695 314.88641357 -110.19449615 88.30323792 2 -1 0 
127 3 2 1.00000000 128.19999695 316.55847931 -109.25363922 91.70870209 2 -1 0 
128 3 2 1.00000000 128.19999695 319.40145874 -106.82584381 91.83768463 2 -1 0 
129 3 2 1.00000000 128.19999695 318.71327209 -104.78071594 88.45242310 2 -1 0 
130 3 2 1.00000000 128.19999695 319.26299286 -101.75333405 86.02349091 2 0 0 
131 3 1 -1.00000000 129.10000610 319.50601196 -98.86203003 83.89832306 2 0 0 
132 3 1 -1.00000000 129.10000610 318.04149628 -97.52489471 80.82634735 2 0 0 
133 3 1 -1.00000000 129.10000610 317.26950073 -94.01164246 82.28902435 2 0 0 
134 3 2 1.00000000 128.19999695 319.51036072 -90.98542786 81.94774628 2 0 0 
135 3 2 1.00000000 128.19999695 318.48770905 -87.41565704 82.43236542 2 0 0 
136 3 2 1.00000000 128.19999695 321.03820801 -84.71669006 82.63744354 2 0 0 
137 3 1 -1.00000000 129.10000610 324.50127411 -85.58943939 80.96848297 2 0 0 
138 3 2 1.00000000 128.19999695 326.15893555 -88.38833618 81.83498383 2 0 0 
139 3 1 -1.00000000 129.10000610 327.39216614 -87.74735260 85.48243713 2 0 0 
140 3 1 -1.00000000 129.10000610 326.91788483 -84.29840088 87.12709808 2 0 0 
141 3 1 -1.00000000 129.10000610 328.64873505 -81.02928162 86.58870697 2 0 0 
142 3 2 1.00000000 128.19999695 328.69212341 -78.65473175 83.43750000 2 0 0 
143 3 1 -1.00000000 129.10000610 331.52027893 -78.18760681 81.14736176 2 0 0 
144 3 2 1.00000000 128.19999695 332.88444519 -81.22780609 78.86048889 2 0 0 
145 3 2 1.00000000 128.19999695 332.27843475 -85.33939362 78.60151672 2 0 0 
146 3 2 1.00000000 128.19999695 332.75311279 -88.89881134 79.17599487 2 0 0 
147 3 1 -1.00000000 129.10000610 335.95330048 -90.74645233 79.14990234 2 0 0 
148 3 2 1.00000000 128.19999695 336.44344330 -93.26362610 81.94793701 2 0 0 
149 3 1 -1.00000000 129.10000610 338.97898865 -95.15940094 83.91806793 2 0 0 
150 3 2 1.00000000 128.19999695 339.34362793 -99.21353149 83.45969391 2 0 0 
151 4 2 1.00000000 128.19999695 -188.96590424 352.44365692 23.56568909 -1 2 0 
152 4 1 -1.00000000 129.10000610 -192.92113590 350.62581635 23.58048248 -1 2 0 
153 4 2 1.00000000 128.19999695 -196.52702045 350.32881927 23.09167290 -1 2 0 
154 4 2 1.00000000 128.19999695 -199.74072933 351.62481689 21.26920700 -1 2 0 
155 4 2 1.00000000 128.19999695 -199.93951845 354.79380798 23.25131035 -1 2 0 
156 4 1 -1.00000000 129.10000610 -200.88322783 358.30612564 23.13829231 -1 2 0 
157 4 2 1.00000000 128.19999695 -197.44228268 360.29809189 22.64577866 -1 2 0 
158 4 1 -1.00000000 129.10000610 -195.22654724 358.97103882 19.87836266 -1 2 0 
159 4 1 -1.00000000 129.10000610 -194.79717064 356.91943359 16.71330452 -1 2 0 
160 4 1 -1.00000000 129.10000610 -194.48560715 353.59919357 14.84416676 -1 2 0 
161 4 2 1.00000000 128.19999695 -195.39111614 350.28224945 16.20255089 -1 2 0 
162 4 1 -1.00000000 129.10000610 -193.47338867 346.76613617 14.80070210 -1 2 0 
163 4 1 -1.00000000 129.10000610 -192.40283489 343.45230103 13.47947502 -1 2 0 
164 4 1 -1.00000000 129.10000610 -188.97888947 342.73506165 14.55166626 -1 2 0 
165 4 2 1.00000000 128.19999695 -189.00684357 342.53858185 18.32443047 -1 2 0 
166 4 2 1.00000000 128.19999695 -189.49451637 338.57912445 19.01303864 -1 2 0 
167 4 1 -1.00000000 129.10000610 -191.71504402 336.32475281 16.58537674 -1 2 0 
168 4 1 -1.00000000 129.10000610 -190.34681702 334.82925415 13.47783947 -1 2 0 
169 4 2 1.00000000 128.19999695 -192.57896423 332.90328979 11.26312256 -1 2 0 
170 4 1 -1.00000000 129.10000610 -193.26524258 336.07157135 8.87708855 -1 2 0 
171 4 1 -1.00000000 129.10000610 -197.06919384 335.69987488 8.31813812 -1 2 0 
172 4 1 -1.00000000 129.10000610 -199.63457298 333.93385315 5.93371201 -1 2 0 
173 4 2 1.00000000 128.19999695 -199.38462114 335.78625488 2.67357755 -1 2 0 
174 4 1 -1.00000000 129.10000610 -199.76609278 338.08463287 -0.23319608 -1 2 0 
175 4 1 -1.00000000 129.10000610 -200.95189571 341.32025146 1.17044377 -1 2 0 
176 4 2 1.00000000 128.19999695 -200.39822006 341.75914001 4.82973051 -1 2 0 
177 4 2 1.00000000 128.19999695 -201.66195726 344.21401978 7.51876211 -1 2 0 
178 4 2 1.00000000 128.19999695 -198.33808327 346.16668701 7.90635347 -1 2 0 
179 4 2 1.00000000 128.19999695 -197.87174416 349.65986633 8.60524273 -1 2 0 
180 4 2 1.00000000 128.19999695 -200.55021524 351.29537201 11.26456738 -1 2 0 
181 4 1 -1.00000000 129.10000610 -201.47747707 354.58553314 13.10874176 -1 2 0 
182 4 1 -1.00000000 129.10000610 -201.08312464 358.40607071 13.19150162 -1 2 0 
183 4 1 -1.00000000 129.10000610 -200.45010042 361.18573380 10.61678600 -1 2 0 
184 4 2 1.00000000 128.19999695 -202.54914713 361.90233612 7.78283215 -1 2 0 
185 4 2 1.00000000 128.19999695 -205.68453753 359.80997086 7.16819715 -1 2 0 
186 4 2 1.00000000 128.19999695 -207.44472489 356.37315750 6.44195938 -1 2 0 
187 4 1 -1.00000000 129.10000610 -206.63262767 353.65159607 4.08990717 -1 2 0 
188 4 2 1.00000000 128.19999695 -207.26836308 350.12181091 2.74599934 -1 2 0 
189 4 1 -1.00000000 129.10000610 -206.78041840 349.83568573 -0.92436826 -1 2 0 
190 4 1 -1.00000000 129.10000610 -206.00007963 350.60927582 -4.17198753 -1 2 0 
191 4 1 -1.00000000 129.10000610 -206.73419905 354.34471893 -4.58752966 -1 2 0 
192 4 2 1.00000000 128.19999695 -206.30813289 355.42040253 -8.44500160 -1 2 0 
193 4 1 -1.00000000 129.10000610 -208.93231487 357.11811066 -11.02115822 -1 2 0 
194 4 2 1.00000000 128.19999695 -209.41026568 360.95948029 -11.48778248 -1 2 0 
195 4 2 1.00000000 128.19999695 -207.42099383 362.66201782 -14.41805172 -1 2 0 
196 4 2 1.00000000 128.19999695 -206.00669253 366.15081787 -14.01496124 -1 2 0 
197 4 1 -1.00000000 129.10000610 -202.64241600 366.57276154 -15.70315933 -1 2 0 
198 4 2 1.00000000 128.19999695 -199.89233017 365.57928085 -13.02761269 -1 2 0 
199 4 1 -1.00000000 129.10000610 -200.85769796 368.68130875 -10.66961670 -1 2 0 
200 4 2 1.00000000 128.19999695 -203.58239555 371.10848999 -9.97138119 -1 2 0 
201 5 2 1.00000000 128.19999695 -232.82523346 -250.25214767 -189.35577202 -1 -1 -1 
202 5 1 -1.00000000 129.10000610 -233.03189659 -253.75236130 -188.13319206 -1 -1 -1 
203 5 2 1.00000000 128.19999695 -232.05559731 -254.92243195 -184.60240746 -1 -1 -1 
204 5 2 1.00000000 128.19999695 -229.87947273 -255.16896820 -181.53765488 -1 -1 -1 
205 5 2 1.00000000 128.19999695 -228.22619057 -251.96565247 -180.85990524 -1 -1 -1 
206 5 1 -1.00000000 129.10000610 -226.16272736 -248.88576889 -180.66460228 -1 -1 -1 
207 5 2 1.00000000 128.19999695 -224.39087296 -248.65109253 -184.20234489 -1 -1 -1 
208 5 1 -1.00000000 129.10000610 -221.24208927 -249.88139725 -185.61739922 -1 -1 -1 
209 5 1 -1.00000000 129.10000610 -219.04954910 -247.79016876 -188.03783035 -1 -1 -1 
210 5 1 -1.00000000 129.10000610 -215.36826611 -246.20785522 -189.25082588 -1 -1 -1 
211 5 2 1.00000000 128.19999695 -216.25465870 -244.92550659 -192.80941200 -1 -1 -1 
212 5 1 -1.00000000 129.10000610 -217.86260319 -244.62260056 -196.26351357 -1 -1 -1 
213 5 1 -1.00000000 129.10000610 -218.98595333 -247.22938156 -198.49602699 -1 -1 -1 
214 5 1 -1.00000000 129.10000610 -220.85002518 -247.17613220 -201.53036690 -1 -1 -1 
215 5 2 1.00000000 128.19999695 -221.50935841 -245.90293884 -205.08423758 -1 -1 -1 
216 5 2 1.00000000 128.19999695 -223.64704132 -243.51500320 -207.27746461 -1 -1 -1 
217 5 1 -1.00000000 129.10000610 -224.66918182 -244.58400726 -210.70950961 -1 -1 -1 
218 5 1 -1.00000000 129.10000610 -226.07747841 -242.88027573 -213.48694372 -1 -1 -1 
219 5 2 1.00000000 128.19999695 -224.42072296 -242.31906509 -217.04003716 -1 -1 -1 
220 5 1 -1.00000000 129.10000610 -223.43120384 -242.41356277 -220.71773338 -1 -1 -1 
221 5 1 -1.00000000 129.10000610 -222.33304596 -244.21473312 -223.92603683 -1 -1 -1 
222 5 1 -1.00000000 129.10000610 -224.07985878 -247.46239471 -224.41546249 -1 -1 -1 
223 5 2 1.00000000 128.19999695 -225.57378769 -249.72389221 -227.15197372 -1 -1 -1 
224 5 1 -1.00000000 129.10000610 -227.01776695 -251.46802521 -229.90135574 -1 -1 -1 
225 5 1 -1.00000000 129.10000610 -229.07042503 -251.87627029 -233.19668007 -1 -1 -1 
226 5 2 1.00000000 128.19999695 -228.20978928 -252.82585907 -236.61369896 -1 -1 -1 
227 5 2 1.00000000 128.19999695 -227.77787399 -254.92414093 -239.46657562 -1 -1 -1 
228 5 2 1.00000000 128.19999695 -228.85324478 -254.05371857 -242.90130997 -1 -1 -1 
229 5 2 1.00000000 128.19999695 -230.79244041 -254.55036545 -246.17042542 -1 -1 -1 
230 5 2 1.00000000 128.19999695 -233.60772324 -256.94391632 -246.02765656 -1 -1 -1 
231 5 1 -1.00000000 129.10000610 -232.93772316 -260.53955460 -244.55794907 -1 -1 -1 
232 5 1 -1.00000000 129.10000610 -230.40151596 -262.86679459 -246.57487106 -1 -1 -1 
233 5 1 -1.00000000 129.10000610 -227.42209053 -262.67485809 -244.12844849 -1 -1 -1 
234 5 2 1.00000000 128.19999695 -228.85216713 -263.80789948 -240.74425125 -1 -1 -1 
235 5 2 1.00000000 128.19999695 -229.34851265 -262.46390915 -237.17697144 -1 -1 -1 
236 5 2 1.00000000 128.19999695 -229.93962860 -264.08588028 -233.65556717 -1 -1 -1 
237 5 1 -1.00000000 129.10000610 -229.92829323 -263.52757263 -229.89826393 -1 -1 -1 
238 5 2 1.00000000 128.19999695 -232.84406471 -261.42363739 -228.65448380 -1 -1 -1 
239 5 1 -1.00000000 129.10000610 -235.34858322 -258.57180405 -228.22857475 -1 -1 -1 
240 5 1 -1.00000000 129.10000610 -237.55723000 -256.77570343 -225.87278748 -1 -1 -1 
241 5 1 -1.00000000 129.10000610 -240.04123306 -255.12518311 -228.67782593 -1 -1 -1 
242 5 2 1.00000000 128.19999695 -242.06266785 -255.67164230 -232.10139656 -1 -1 -1 
243 5 1 -1.00000000 129.10000610 -239.54624939 -257.75952911 -234.32946014 -1 -1 -1 
244 5 2 1.00000000 128.19999695 -237.23618507 -259.77726364 -236.89314270 -1 -1 -1 
245 5 2 1.00000000 128.19999695 -238.58182526 -263.54382324 -235.36501122 -1 -1 -1 
246 5 2 1.00000000 128.19999695 -241.08953857 -266.16347122 -235.59119034 -1 -1 -1 
247 5 1 -1.00000000 129.10000610 -243.09087753 -268.46864319 -238.12707520 -1 -1 -1 
248 5 2 1.00000000 128.19999695 -245.56786728 -271.42985535 -236.83356094 -1 -1 -1 
249 5 1 -1.00000000 129.10000610 -244.20474243 -275.09194946 -237.57177353 -1 -1 -1 
250 5 2 1.00000000 128.19999695 -240.96050644 -275.45958710 -238.76576805 -1 -1 -1 
251 6 2 1.00000000 128.19999695 494.67677307 -484.38719940 -84.03215790 2 -2 0 
252 6 1 -1.00000000 129.10000610 497.70555878 -486.43683624 -84.52653503 2 -2 0 
253 6 2 1.00000000 128.19999695 501.32063293 -487.63164520 -84.46135712 2 -2 0 
254 6 2 1.00000000 128.19999695 501.54411316 -488.97839355 -88.05273438 2 -2 0 
255 6 2 1.00000000 128.19999695 500.72946167 -490.20630646 -91.55274200 2 -2 0 
256 6 1 -1.00000000 129.10000610 499.04994202 -487.96635437 -94.07956696 2 -2 0 
257 6 2 1.00000000 128.19999695 497.19740295 -485.45930481 -95.79549408 2 -2 0 
258 6 1 -1.00000000 129.10000610 496.97920990 -482.11257172 -97.65995789 2 -2 0 
259 6 1 -1.00000000 129.10000610 496.77467346 -478.85599518 -96.13199615 2 -2 0 
260 6 1 -1.00000000 129.10000610 499.48733521 -478.14985275 -93.10305023 2 -2 0 
261 6 2 1.00000000 128.19999695 502.42078400 -477.89134598 -90.73012543 2 -2 0 
262 6 1 -1.00000000 129.10000610 502.93884277 -478.31834793 -86.91242218 2 -2 0 
263 6 1 -1.00000000 129.10000610 506.07152557 -476.94959641 -84.86898804 2 -2 0 
264 6 1 -1.00000000 129.10000610 508.22636414 -476.15207291 -88.04400635 2 -2 0 
265 6 2 1.00000000 128.19999695 509.92102051 -473.34134293 -90.01547241 2 -2 0 
266 6 2 1.00000000 128.19999695 512.79151154 -470.73318481 -91.02197266 2 -2 0 
267 6 1 -1.00000000 129.10000610 514.91499329 -471.03149796 -94.37390137 2 -2 0 
268 6 1 -1.00000000 129.10000610 514.19960022 -475.15459442 -95.43132019 2 -2 0 
269 6 2 1.00000000 128.19999695 510.52608490 -476.06520844 -97.01506805 2 -2 0 
270 6 1 -1.00000000 129.10000610 510.34192657 -477.82670212 -100.22928619 2 -2 0 
271 6 1 -1.00000000 129.10000610 507.81816101 -478.71675110 -103.01773071 2 -2 0 
272 6 1 -1.00000000 129.10000610 506.39625549 -477.79714966 -106.25422668 2 -2 -1 
273 6 2 1.00000000 128.19999695 504.10353851 -475.28474426 -106.28260803 2 -2 -1 
274 6 1 -1.00000000 129.10000610 503.31494141 -473.51606750 -109.48506165 2 -2 -1 
275 6 1 -1.00000000 129.10000610 504.24538422 -469.90755844 -109.89037323 2 -2 -1 
276 6 2 1.00000000 128.19999695 507.69785309 -468.60139465 -111.09247589 2 -2 -1 
277 6 2 1.00000000 128.19999695 508.90975952 -465.03937531 -109.88657379 2 -2 -1 
278 6 2 1.00000000 128.19999695 507.51404572 -461.17232513 -109.96437073 2 -2 -1 
279 6 2 1.00000000 128.19999695 508.07578278 -457.57827759 -108.60441589 2 -2 -1 
280 6 2 1.00000000 128.19999695 510.85931396 -454.61684799 -107.93041229 2 -2 -1 
281 6 1 -1.00000000 129.10000610 513.57600403 -456.28709793 -105.73693848 2 -2 -1 
282 6 1 -1.00000000 129.10000610 517.18001556 -456.57493973 -106.14420319 2 -2 -1 
283 6 1 -1.00000000 129.10000610 519.53584290 -455.64647675 -108.58401489 3 -2 -1 
284 6 2 1.00000000 128.19999695 520.53826141 -454.55478668 -112.20013428 3 -2 -1 
285 6 2 1.00000000 128.19999695 523.34097290 -452.05909729 -112.55162048 3 -2 -1 
286 6 2 1.00000000 128.19999695 526.24211884 -449.67362595 -112.15354919 3 -2 -1 
287 6 1 -1.00000000 129.10000610 529.77579498 -448.41987228 -111.35997772 3 -2 -1 
288 6 2 1.00000000 128.19999695 532.72026825 -446.36821175 -111.33555603 3 -2 -1 
289 6 1 -1.00000000 129.10000610 535.33837128 -447.19903183 -108.74835205 3 -2 -1 
290 6 1 -1.00000000 129.10000610 535.49182129 -448.85311127 -105.22556305 3 -2 -1 
291 6 1 -1.00000000 129.10000610 538.73452759 -450.84423065 -104.67852020 3 -2 -1 
292 6 2 1.00000000 128.19999695 539.69491577 -454.30727005 -106.37235260 3 -2 -1 
293 6 1 -1.00000000 129.10000610 536.36796570 -455.81385040 -107.60266113 3 -2 -1 
294 6 2 1.00000000 128.19999695 535.01069641 -454.18726730 -110.38671875 3 -2 -1 
295 6 2 1.00000000 128.19999695 534.90087128 -453.98228836 -114.40149689 3 -2 -1 
296 6 2 1.00000000 128.19999695 531.63663483 -454.43809891 -116.21176147 3 -2 -1 
297 6 1 -1.00000000 129.10000610 527.99516296 -455.59719849 -116.42825317 3 -2 -1 
298 6 2 1.00000000 128.19999695 527.80236816 -457.37808609 -112.80561829 3 -2 -1 
299 6 1 -1.00000000 129.10000610 527.24652863 -460.95278549 -111.76972961 3 -2 -1 
300 6 2 1.00000000 128.19999695 524.53896332 -463.30731201 -112.07092285 3 -2 -1 
301 7 2 1.00000000 128.19999695 -33.37844849 -90.87464142 -852.68897438 0 0 -4 
302 7 1 -1.00000000 129.10000610 -29.73505402 -89.98162842 -852.34491158 0 0 -4 
303 7 2 1.00000000 128.19999695 -27.68183899 -90.52195740 -848.84569550 0 0 -4 
304 7 2 1.00000000 128.19999695 -28.01754379 -93.25703430 -846.10156059 0 0 -4 
305 7 2 1.00000000 128.19999695 -29.87173462 -93.52972412 -842.73096085 0 0 -4 
306 7 1 -1.00000000 129.10000610 -32.93932724 -96.17603302 -841.89781857 0 0 -4 
307 7 2 1.00000000 128.19999695 -35.74423218 -99.00520325 -842.02316475 0 0 -4 
308 7 1 -1.00000000 129.10000610 -39.43128967 -98.61356354 -840.46186256 0 0 -4 
309 7 1 -1.00000000 129.10000610 -41.57829666 -101.51048279 -840.51412296 0 0 -4 
310 7 1 -1.00000000 129.10000610 -45.13259888 -101.86480713 -841.51260757 0 0 -4 
311 7 2 1.00000000 128.19999695 -46.78539276 -98.89939117 -842.37346745 0 0 -4 
312 7 1 -1.00000000 129.10000610 -46.33388519 -96.31481171 -845.26457310 0 0 -4 
313 7 1 -1.00000000 129.10000610 -43.34547043 -96.69133759 -847.22072792 0 0 -4 
314 7 1 -1.00000000 129.10000610 -41.15875626 -98.91561890 -849.75363731 0 0 -4 
315 7 2 1.00000000 128.19999695 -41.41462708 -102.57697296 -849.67885208 0 0 -4 
316 7 2 1.00000000 128.19999695 -38.52416611 -104.99588776 -849.53171730 0 -1 -4 
317 7 1 -1.00000000 129.10000610 -37.45475388 -105.71758270 -853.03767204 0 -1 -4 
318 7 1 -1.00000000 129.10000610 -35.14619446 -105.49695587 -856.30557251 0 -1 -4 
319 7 2 1.00000000 128.19999695 -31.26086426 -106.03101349 -856.29181480 0 -1 -4 
320 7 1 -1.00000000 129.10000610 -27.90777779 -107.66464233 -855.28713226 0 -1 -4 
321 7 1 -1.00000000 129.10000610 -25.70774460 -109.61331940 -852.72631645 0 -1 -4 
322 7 1 -1.00000000 129.10000610 -22.84304237 -107.39909363 -852.62549210 0 -1 -4 
323 7 2 1.00000000 128.19999695 -19.16420174 -108.70686340 -853.32931328 0 -1 -4 
324 7 1 -1.00000000 129.10000610 -19.06571388 -110.31795502 -849.78415680 0 -1 -4 
325 7 1 -1.00000000 129.10000610 -20.59931946 -114.17601776 -849.69926834 0 -1 -4 
326 7 2 1.00000000 128.19999695 -23.57028961 -116.73466492 -848.52207756 0 -1 -4 
327 7 2 1.00000000 128.19999695 -26.32339287 -118.09761810 -846.48717880 0 -1 -4 
328 7 2 1.00000000 128.19999695 -25.78038788 -118.57275391 -842.89695358 0 -1 -4 
329 7 2 1.00000000 128.19999695 -24.13767815 -118.31470490 -839.63708019 0 -1 -4 
330 7 2 1.00000000 128.19999695 -25.35108566 -116.73150635 -836.19345522 0 -1 -4 
331 7 1 -1.00000000 129.10000610 -22.50477982 -115.15171814 -833.96864367 0 -1 -4 
332 7 1 -1.00000000 129.10000610 -18.91177750 -115.32871246 -834.13566494 0 -1 -4 
333 7 1 -1.00000000 129.10000610 -15.53983212 -115.88474274 -835.62831068 0 -1 -4 
334 7 2 1.00000000 128.19999695 -12.48845768 -114.58027649 -837.73845100 0 -1 -4 
335 7 2 1.00000000 128.19999695 -9.00585270 -112.65257263 -837.29939556 0 -1 -4 
336 7 2 1.00000000 128.19999695 -8.41543674 -111.12251282 -840.76737499 0 -1 -4 
337 7 1 -1.00000000 129.10000610 -5.83284330 -110.18344116 -843.33080769 0 -1 -4 
338 7 2 1.00000000 128.19999695 -5.86792469 -106.46179199 -844.43872261 0 -1 -4 
339 7 1 -1.00000000 129.10000610 -2.18533254 -105.02175903 -844.97220993 0 -1 -4 
340 7 1 -1.00000000 129.10000610 -0.21455778 -106.36881256 -847.74024582 0 -1 -4 
341 7 1 -1.00000000 129.10000610 -1.51712358 -109.28938293 -849.54759789 0 -1 -4 
342 7 2 1.00000000 128.19999695 -2.25667930 -112.98487091 -849.53698730 0 -1 -4 
343 7 1 -1.00000000 129.10000610 -6.00390673 -114.39980316 -849.46137428 0 -1 -4 
344 7 2 1.00000000 128.19999695 -5.45315123 -118.32041931 -851.01658440 0 -1 -4 
345 7 2 1.00000000 128.19999695 -4.04870749 -120.00333405 -854.40989876 0 -1 -4 
346 7 2 1.00000000 128.19999695 -5.55387449 -118.04686737 -856.98130989 0 -1 -4 
347 7 1 -1.00000000 129.10000610 -5.93059349 -114.23773193 -856.83143234 0 -1 -4 
348 7 2 1.00000000 128.19999695 -9.13099003 -112.63879395 -857.39997101 0 -1 -4 
349 7 1 -1.00000000 129.10000610 -9.82909966 -109.40597534 -859.07313728 0 -1 -4 
350 7 2 1.00000000 128.19999695 -7.02359724 -106.89603424 -858.09474945 0 -1 -4 
351 8 2 1.00000000 128.19999695 43.15825272 -152.35439301 585.40906906 0 -1 3 
352 8 1 -1.00000000 129.10000610 41.26097107 -155.82539749 586.00130081 0 -1 3 
353 8 2 1.00000000 128.19999695 37.37741852 -155.31353378 585.62326813 0 -1 3 
354 8 2 1.00000000 128.19999695 35.87375641 -156.47863007 589.25631714 0 -1 3 
355 8 2 1.00000000 128.19999695 34.63572693 -159.79665756 590.33938408 0 -1 3 
356 8 1 -1.00000000 129.10000610 35.94036865 -162.97525406 592.36795807 0 -1 3 
357 8 2 1.00000000 128.19999695 37.34598923 -164.38648605 595.78286552 0 -1 3 
358 8 1 -1.00000000 129.10000610 38.37254715 -167.46931458 597.68415070 0 -1 3 
359 8 1 -1.00000000 129.10000610 41.26984406 -167.49785233 600.20622826 0 -1 3 
360 8 1 -1.00000000 129.10000610 41.95269394 -164.67414093 602.51519966 0 -1 3 
361 8 2 1.00000000 128.19999695 45.07492828 -163.23600769 604.03466415 0 -1 3 
362 8 1 -1.00000000 129.10000610 48.59306335 -162.97525024 605.12199974 0 -1 3 
363 8 1 -1.00000000 129.10000610 51.70010757 -163.29526138 603.05058289 0 -1 3 
364 8 1 -1.00000000 129.10000610 53.37124634 -160.02470398 604.22388458 0 -1 3 
365 8 2 1.00000000 128.19999695 55.39175415 -157.61111832 602.18308258 0 -1 3 
366 8 2 1.00000000 128.19999695 58.40419769 -155.14846420 601.60767746 0 -1 3 
367 8 1 -1.00000000 129.10000610 61.31968307 -154.57110977 598.99081421 0 -1 3 
368 8 1 -1.00000000 129.10000610 62.06043625 -156.48949814 595.78503036 0 -1 3 