ITEM: TIMESTEP
43000000 
ITEM: NUMBER OF ATOMS 
25000 
ITEM: BOX BOUNDS pp pp pp 
-103.678017 103.678017 
-103.678017 103.678017 
-103.678017 103.678017 
ITEM: ATOMS id mol type q mass xu yu zu ix iy iz 
1 1 2 1.00000000 128.19999695 559.60817337 -149.35479736 -303.03957367 3 -1 -1 
2 1 1 -1.00000000 129.10000610 560.51138687 -148.81480408 -306.75117493 3 -1 -1 
3 1 2 1.00000000 128.19999695 557.94383240 -150.59469223 -309.00647736 3 -1 -1 
4 1 2 1.00000000 128.19999695 557.34333038 -150.37747955 -313.00127411 3 -1 -2 
5 1 2 1.00000000 128.19999695 555.71538544 -152.67271423 -315.61737823 3 -1 -2 
6 1 1 -1.00000000 129.10000610 554.34548950 -152.08170319 -319.11900330 3 -1 -2 
7 1 2 1.00000000 128.19999695 552.72387695 -153.29227448 -322.67125702 3 -1 -2 
8 1 1 -1.00000000 129.10000610 549.27670288 -153.29967880 -324.21791077 3 -1 -2 
9 1 1 -1.00000000 129.10000610 545.73602295 -152.22799683 -325.49139404 3 -1 -2 
10 1 1 -1.00000000 129.10000610 543.74650574 -153.46757889 -328.37270355 3 -1 -2 
11 1 2 1.00000000 128.19999695 540.42264557 -155.44727325 -327.48408508 3 -1 -2 
12 1 1 -1.00000000 129.10000610 538.65457153 -158.15743637 -329.49539185 3 -1 -2 
13 1 1 -1.00000000 129.10000610 538.02877045 -158.57207870 -333.27738190 3 -1 -2 
14 1 1 -1.00000000 129.10000610 536.86569977 -155.96218491 -335.62302399 3 -1 -2 
15 1 2 1.00000000 128.19999695 538.66439056 -154.13274765 -338.94149017 3 -1 -2 
16 1 2 1.00000000 128.19999695 539.40871429 -156.10927200 -341.93223572 3 -1 -2 
17 1 1 -1.00000000 129.10000610 536.70648956 -158.91869354 -342.07491302 3 -1 -2 
18 1 1 -1.00000000 129.10000610 533.30347443 -158.22895432 -342.96109772 3 -1 -2 
19 1 2 1.00000000 128.19999695 531.08080292 -156.97085190 -340.20118713 3 -1 -2 
20 1 1 -1.00000000 129.10000610 527.92556000 -158.32045746 -338.23260498 3 -1 -2 
21 1 1 -1.00000000 129.10000610 524.15134430 -157.60211563 -337.88755798 3 -1 -2 
22 1 1 -1.00000000 129.10000610 522.09135437 -161.01028061 -337.79951477 3 -1 -2 
23 1 2 1.00000000 128.19999695 519.63347626 -160.67725372 -334.81136322 3 -1 -2 
24 1 1 -1.00000000 129.10000610 519.80568695 -157.36217499 -332.82849121 3 -1 -2 
25 1 1 -1.00000000 129.10000610 521.70597839 -153.94449234 -331.75384521 3 -1 -2 
26 1 2 1.00000000 128.19999695 522.30328369 -150.42875671 -332.44631958 3 -1 -2 
27 1 2 1.00000000 128.19999695 521.27594757 -148.66456604 -336.17880249 3 -1 -2 
28 1 2 1.00000000 128.19999695 520.80585480 -144.88832855 -335.92662048 3 -1 -2 
29 1 2 1.00000000 128.19999695 520.46592712 -142.72721863 -338.58809662 3 -1 -2 
30 1 2 1.00000000 128.19999695 522.27207184 -139.48297119 -337.73308563 3 -1 -2 
31 1 1 -1.00000000 129.10000610 520.06842041 -136.46836853 -339.29354858 3 -1 -2 
32 1 1 -1.00000000 129.10000610 518.66173553 -133.29772949 -338.55754852 3 -1 -2 
33 1 1 -1.00000000 129.10000610 519.33269501 -129.75686646 -339.83950806 3 -1 -2 
34 1 2 1.00000000 128.19999695 521.31960297 -129.64925385 -343.26335907 3 -1 -2 
35 1 2 1.00000000 128.19999695 523.57448578 -132.48272705 -344.95036316 3 -1 -2 
36 1 2 1.00000000 128.19999695 526.57206726 -134.17094421 -343.86370087 3 -1 -2 
37 1 1 -1.00000000 129.10000610 529.66569519 -136.00833130 -341.93100739 3 -1 -2 
38 1 2 1.00000000 128.19999695 531.61365509 -136.90290833 -339.27841949 3 -1 -2 
39 1 1 -1.00000000 129.10000610 533.55992889 -135.14329529 -336.50728607 3 -1 -2 
40 1 1 -1.00000000 129.10000610 532.28944397 -137.42288971 -333.45112610 3 -1 -2 
41 1 1 -1.00000000 129.10000610 534.56445312 -140.42710114 -332.96668243 3 -1 -2 
42 1 2 1.00000000 128.19999695 535.26275635 -143.50847244 -334.68143463 3 -1 -2 
43 1 1 -1.00000000 129.10000610 535.03310394 -145.89700699 -331.68022919 3 -1 -2 
44 1 2 1.00000000 128.19999695 537.83123016 -147.73354340 -330.89373779 3 -1 -2 
45 1 2 1.00000000 128.19999695 536.49969482 -150.44545746 -328.31329346 3 -1 -2 
46 1 2 1.00000000 128.19999695 535.41458893 -152.25976181 -325.12977600 3 -1 -2 
47 1 1 -1.00000000 129.10000610 533.65506744 -154.79586792 -322.78022003 3 -1 -2 
48 1 2 1.00000000 128.19999695 529.82999420 -155.79969406 -321.99464417 3 -1 -2 
49 1 1 -1.00000000 129.10000610 527.73239899 -153.12570190 -323.58756256 3 -1 -2 
50 1 2 1.00000000 128.19999695 528.10610199 -149.09492874 -323.38043976 3 -1 -2 
51 2 2 1.00000000 128.19999695 463.68605804 406.96290874 -307.68519592 2 2 -1 
52 2 1 -1.00000000 129.10000610 465.44488907 403.70598316 -307.60015869 2 2 -1 
53 2 2 1.00000000 128.19999695 464.53539276 400.70849228 -305.44188690 2 2 -1 
54 2 2 1.00000000 128.19999695 464.84031296 397.85123825 -302.89618683 2 2 -1 
55 2 2 1.00000000 128.19999695 465.64868546 394.32958031 -304.11268616 2 2 -1 
56 2 1 -1.00000000 129.10000610 469.33424377 394.10634232 -304.34656525 2 2 -1 
57 2 2 1.00000000 128.19999695 472.64553452 394.10633659 -302.13206482 2 2 -1 
58 2 1 -1.00000000 129.10000610 475.41006851 396.94065857 -303.14315796 2 2 -1 
59 2 1 -1.00000000 129.10000610 477.77467728 399.18594551 -300.53202820 2 2 -1 
60 2 1 -1.00000000 129.10000610 476.84060669 400.55589390 -297.13271332 2 2 -1 
61 2 2 1.00000000 128.19999695 474.09899521 403.10066700 -299.10187531 2 2 -1 
62 2 1 -1.00000000 129.10000610 473.94889832 406.08248615 -296.63957214 2 2 -1 
63 2 1 -1.00000000 129.10000610 470.66207123 408.03035259 -296.02114105 2 2 -1 
64 2 1 -1.00000000 129.10000610 467.10044861 408.75108480 -297.47344971 2 2 -1 
65 2 2 1.00000000 128.19999695 465.61972427 406.12495518 -299.68675995 2 2 -1 
66 2 2 1.00000000 128.19999695 461.83108139 407.19957256 -300.36975861 2 2 -1 
67 2 1 -1.00000000 129.10000610 458.50253677 406.26010895 -298.62022400 2 2 -1 
68 2 1 -1.00000000 129.10000610 457.42054367 402.59642887 -297.40701294 2 2 -1 
69 2 2 1.00000000 128.19999695 457.94623184 400.29871750 -300.38039398 2 2 -1 
70 2 1 -1.00000000 129.10000610 456.49054337 399.97103596 -303.73013306 2 2 -1 
71 2 1 -1.00000000 129.10000610 452.86313629 401.16278076 -304.22714233 2 2 -1 
72 2 1 -1.00000000 129.10000610 450.47763062 397.93566132 -304.17405701 2 2 -1 
73 2 2 1.00000000 128.19999695 448.69981003 397.39734268 -300.77943420 2 2 -1 
74 2 1 -1.00000000 129.10000610 446.03844452 399.40670776 -298.55780792 2 2 -1 
75 2 1 -1.00000000 129.10000610 444.67783737 396.59198761 -296.27912140 2 2 -1 
76 2 2 1.00000000 128.19999695 441.22429848 395.02724648 -295.87541199 2 2 -1 
77 2 2 1.00000000 128.19999695 437.34802818 394.96342850 -296.39739990 2 2 -1 
78 2 2 1.00000000 128.19999695 434.80809402 394.35710526 -293.89186859 2 2 -1 
79 2 2 1.00000000 128.19999695 433.42091179 395.09414482 -290.49025726 2 2 -1 
80 2 2 1.00000000 128.19999695 434.76073456 396.77091026 -286.75934601 2 2 -1 
81 2 1 -1.00000000 129.10000610 431.19701576 397.58891106 -285.72865295 2 2 -1 
82 2 1 -1.00000000 129.10000610 427.49466324 398.41603661 -287.05857849 2 2 -1 
83 2 1 -1.00000000 129.10000610 427.90393925 399.84264183 -290.61516571 2 2 -1 
84 2 2 1.00000000 128.19999695 430.25654793 402.64253235 -291.99380493 2 2 -1 
85 2 2 1.00000000 128.19999695 433.70128059 403.15968609 -291.00319672 2 2 -1 
86 2 2 1.00000000 128.19999695 437.11034393 402.94312382 -292.40616608 2 2 -1 
87 2 1 -1.00000000 129.10000610 437.23750305 401.83429718 -295.89192963 2 2 -1 
88 2 2 1.00000000 128.19999695 435.12725258 402.27754879 -299.18329620 2 2 -1 
89 2 1 -1.00000000 129.10000610 436.37466049 401.79629135 -302.99701691 2 2 -1 
90 2 1 -1.00000000 129.10000610 436.10572624 403.80383301 -305.89653778 2 2 -1 
91 2 1 -1.00000000 129.10000610 434.67250633 404.57894230 -309.41699982 2 2 -1 
92 2 2 1.00000000 128.19999695 433.16320038 408.07984066 -309.46675873 2 2 -1 
93 2 1 -1.00000000 129.10000610 432.76421165 411.21841335 -310.82532501 2 2 -1 
94 2 2 1.00000000 128.19999695 430.48821354 412.89966047 -313.86550140 2 2 -2 
95 2 2 1.00000000 128.19999695 428.16725063 416.12451446 -313.05394745 2 2 -2 
96 2 2 1.00000000 128.19999695 424.63127708 416.27957511 -314.50135040 2 2 -2 
97 2 1 -1.00000000 129.10000610 423.34597778 415.16781572 -317.90186310 2 2 -2 
98 2 2 1.00000000 128.19999695 424.21510887 418.25500274 -319.97368622 2 2 -2 
99 2 1 -1.00000000 129.10000610 421.14308548 417.46637177 -322.29339600 2 2 -2 
100 2 2 1.00000000 128.19999695 418.37729955 420.08783579 -321.45983887 2 2 -2 
101 3 2 1.00000000 128.19999695 387.59658813 -126.34379578 74.22840881 2 -1 0 
102 3 1 -1.00000000 129.10000610 385.47585106 -125.14927673 77.25102997 2 -1 0 
103 3 2 1.00000000 128.19999695 383.52068901 -122.04449463 79.31559753 2 -1 0 
104 3 2 1.00000000 128.19999695 381.20172501 -123.52341461 81.84638214 2 -1 0 
105 3 2 1.00000000 128.19999695 381.18125153 -124.58367157 85.70932007 2 -1 0 
106 3 1 -1.00000000 129.10000610 381.33528900 -125.01763916 89.52262878 2 -1 0 
107 3 2 1.00000000 128.19999695 381.00767136 -127.93338013 91.86011505 2 -1 0 
108 3 1 -1.00000000 129.10000610 378.42042160 -128.82649994 94.28414917 2 -1 0 
109 3 1 -1.00000000 129.10000610 374.92373657 -129.15388489 96.25910950 2 -1 0 
110 3 1 -1.00000000 129.10000610 372.09761810 -126.61058807 97.41413879 2 -1 0 
111 3 2 1.00000000 128.19999695 370.87459564 -123.12295532 97.13236237 2 -1 0 
112 3 1 -1.00000000 129.10000610 367.28369141 -123.55074310 98.92016602 2 -1 0 
113 3 1 -1.00000000 129.10000610 364.56023407 -123.71792603 96.29898834 2 -1 0 
114 3 1 -1.00000000 129.10000610 361.82946396 -125.78371429 94.44387817 2 -1 0 
115 3 2 1.00000000 128.19999695 360.36960602 -128.02959442 97.20097351 2 -1 0 
116 3 2 1.00000000 128.19999695 363.66645050 -129.38275146 99.37602234 2 -1 0 
117 3 1 -1.00000000 129.10000610 362.13085556 -132.52390289 100.94625092 2 -1 0 
118 3 1 -1.00000000 129.10000610 362.82912445 -135.23931885 98.81566620 2 -1 0 
119 3 2 1.00000000 128.19999695 361.53258133 -138.08415985 97.29854584 2 -1 0 
120 3 1 -1.00000000 129.10000610 359.82868958 -137.54267120 93.91405487 2 -1 0 
121 3 1 -1.00000000 129.10000610 356.77986526 -138.09479523 91.45378876 2 -1 0 
122 3 1 -1.00000000 129.10000610 354.58056259 -135.23748779 90.53273010 2 -1 0 
123 3 2 1.00000000 128.19999695 356.98780060 -132.20026398 89.90467834 2 -1 0 
124 3 1 -1.00000000 129.10000610 355.95914078 -131.00605774 86.41599274 2 -1 0 
125 3 1 -1.00000000 129.10000610 353.38324356 -128.77947998 84.52319336 2 -1 0 
126 3 2 1.00000000 128.19999695 351.40480042 -129.68984222 81.66976929 2 -1 0 
127 3 2 1.00000000 128.19999695 347.42533875 -130.28431702 82.57131958 2 -1 0 
128 3 2 1.00000000 128.19999695 344.04811096 -128.67482758 82.68630981 2 -1 0 
129 3 2 1.00000000 128.19999695 342.55677795 -126.64965820 85.61235809 2 -1 0 
130 3 2 1.00000000 128.19999695 339.65051270 -126.35981750 87.14625549 2 -1 0 
131 3 1 -1.00000000 129.10000610 337.21192169 -128.58129883 89.13068390 2 -1 0 
132 3 1 -1.00000000 129.10000610 333.95536804 -128.95378113 87.08985901 2 -1 0 
133 3 1 -1.00000000 129.10000610 331.84297180 -125.29967499 86.88961029 2 -1 0 
134 3 2 1.00000000 128.19999695 331.15613556 -121.60551453 88.50003052 2 -1 0 
135 3 2 1.00000000 128.19999695 333.38415527 -121.27408600 91.67655182 2 -1 0 
136 3 2 1.00000000 128.19999695 337.26679230 -122.32430267 92.00742340 2 -1 0 
137 3 1 -1.00000000 129.10000610 340.53567505 -123.20632172 93.84062195 2 -1 0 
138 3 2 1.00000000 128.19999695 344.03823090 -124.14220428 92.56404114 2 -1 0 
139 3 1 -1.00000000 129.10000610 344.80559540 -127.52216339 94.66223907 2 -1 0 
140 3 1 -1.00000000 129.10000610 348.56287384 -127.63418579 94.87561798 2 -1 0 
141 3 1 -1.00000000 129.10000610 352.15405273 -126.32962799 94.98176575 2 -1 0 
142 3 2 1.00000000 128.19999695 354.28699112 -123.39832306 95.20427704 2 -1 0 
143 3 1 -1.00000000 129.10000610 356.15378189 -123.07286072 98.75852203 2 -1 0 
144 3 2 1.00000000 128.19999695 353.22981262 -123.74624634 100.97660065 2 -1 0 
145 3 2 1.00000000 128.19999695 349.52742767 -123.37046814 100.56079865 2 -1 0 
146 3 2 1.00000000 128.19999695 347.81307983 -120.90410614 102.73405457 2 -1 0 
147 3 1 -1.00000000 129.10000610 347.33263397 -120.07088470 106.38977051 2 -1 1 
148 3 2 1.00000000 128.19999695 348.77919769 -122.87876892 108.96444702 2 -1 1 
149 3 1 -1.00000000 129.10000610 346.84506226 -125.75381470 109.88906860 2 -1 1 
150 3 2 1.00000000 128.19999695 345.23506165 -126.20523071 113.57683563 2 -1 1 
151 4 2 1.00000000 128.19999695 -328.46915436 388.06084633 103.09198761 -2 2 0 
152 4 1 -1.00000000 129.10000610 -331.27627563 390.82488632 102.51762390 -2 2 0 
153 4 2 1.00000000 128.19999695 -333.25182343 393.88929939 102.25493622 -2 2 0 
154 4 2 1.00000000 128.19999695 -336.33132172 395.06428528 100.73287201 -2 2 0 
155 4 2 1.00000000 128.19999695 -339.15602112 394.21037865 103.34355927 -2 2 0 
156 4 1 -1.00000000 129.10000610 -340.09088898 397.06985664 105.29786682 -2 2 1 
157 4 2 1.00000000 128.19999695 -338.05873108 399.99490261 106.40573883 -2 2 1 
158 4 1 -1.00000000 129.10000610 -338.90024567 403.54960728 107.41993713 -2 2 1 
159 4 1 -1.00000000 129.10000610 -337.53786469 406.36442471 104.78427887 -2 2 1 
160 4 1 -1.00000000 129.10000610 -336.72837067 406.97722769 101.01215363 -2 2 0 
161 4 2 1.00000000 128.19999695 -339.07987976 406.27526665 98.12026215 -2 2 0 
162 4 1 -1.00000000 129.10000610 -338.09175110 406.35734272 94.62496185 -2 2 0 
163 4 1 -1.00000000 129.10000610 -337.39333344 404.75450706 91.28610992 -2 2 0 
164 4 1 -1.00000000 129.10000610 -340.54506683 404.61383724 89.13959503 -2 2 0 
165 4 2 1.00000000 128.19999695 -343.45928192 403.81647491 86.10356903 -2 2 0 
166 4 2 1.00000000 128.19999695 -347.32997894 405.05304623 86.09763336 -2 2 0 
167 4 1 -1.00000000 129.10000610 -349.28103638 407.45585966 84.02747345 -2 2 0 
168 4 1 -1.00000000 129.10000610 -350.80639267 409.86652088 81.49371338 -2 2 0 
169 4 2 1.00000000 128.19999695 -353.97385406 412.00624013 81.29174805 -2 2 0 
170 4 1 -1.00000000 129.10000610 -357.19338608 413.04439640 83.13275909 -2 2 0 
171 4 1 -1.00000000 129.10000610 -359.28536987 409.71479511 84.10687256 -2 2 0 
172 4 1 -1.00000000 129.10000610 -359.18587112 406.34043407 85.64412689 -2 2 0 
173 4 2 1.00000000 128.19999695 -356.81418991 405.10767269 88.20432281 -2 2 0 
174 4 1 -1.00000000 129.10000610 -353.38580704 407.36753225 87.93430328 -2 2 0 
175 4 1 -1.00000000 129.10000610 -350.95197296 409.25726891 90.30749512 -2 2 0 
176 4 2 1.00000000 128.19999695 -348.01696777 410.19424200 92.52057648 -2 2 0 
177 4 2 1.00000000 128.19999695 -344.42109680 410.73060083 93.16808319 -2 2 0 
178 4 2 1.00000000 128.19999695 -341.48364258 412.20693183 91.25601959 -2 2 0 
179 4 2 1.00000000 128.19999695 -338.78681183 410.28229618 89.04388428 -2 2 0 
180 4 2 1.00000000 128.19999695 -335.39005280 412.37794828 88.61667633 -2 2 0 
181 4 1 -1.00000000 129.10000610 -332.90279388 413.44136024 90.92193604 -2 2 0 
182 4 1 -1.00000000 129.10000610 -331.44355774 416.74909496 92.38791656 -2 2 0 
183 4 1 -1.00000000 129.10000610 -330.11165619 420.13281536 90.74193573 -2 2 0 
184 4 2 1.00000000 128.19999695 -326.66917419 420.28246117 91.79033661 -2 2 0 
185 4 2 1.00000000 128.19999695 -323.07625580 420.02188206 90.43022919 -2 2 0 
186 4 2 1.00000000 128.19999695 -320.75931549 418.68674827 87.96722412 -2 2 0 
187 4 1 -1.00000000 129.10000610 -318.19757080 421.71743298 87.58669281 -2 2 0 
188 4 2 1.00000000 128.19999695 -314.68799591 423.63348675 88.13869476 -2 2 0 
189 4 1 -1.00000000 129.10000610 -312.26669312 424.00766754 91.24773407 -2 2 0 
190 4 1 -1.00000000 129.10000610 -312.64044189 421.56132841 94.46587372 -2 2 0 
191 4 1 -1.00000000 129.10000610 -309.09086609 420.78969193 95.59254456 -1 2 0 
192 4 2 1.00000000 128.19999695 -305.93358612 419.00768042 97.10977936 -1 2 0 
193 4 1 -1.00000000 129.10000610 -302.86632538 418.62817645 99.68008423 -1 2 0 
194 4 2 1.00000000 128.19999695 -301.15484619 421.31866217 100.30142212 -1 2 0 
195 4 2 1.00000000 128.19999695 -298.72644043 424.08323383 101.66309357 -1 2 0 
196 4 2 1.00000000 128.19999695 -299.13333893 427.91810036 102.92755127 -1 2 0 
197 4 1 -1.00000000 129.10000610 -299.48371887 431.48004150 103.82518005 -1 2 1 
198 4 2 1.00000000 128.19999695 -298.29415131 432.45343399 106.93619537 -1 2 1 
199 4 1 -1.00000000 129.10000610 -299.55409241 429.32913494 109.01706696 -1 2 1 
200 4 2 1.00000000 128.19999695 -299.72890472 427.34437180 112.70845795 -1 2 1 
201 5 2 1.00000000 128.19999695 -326.21898651 -270.78148651 -273.10866547 -2 -1 -1 
202 5 1 -1.00000000 129.10000610 -328.68274689 -270.12004089 -270.80537033 -2 -1 -1 
203 5 2 1.00000000 128.19999695 -330.54083252 -266.94154358 -269.55736160 -2 -1 -1 
204 5 2 1.00000000 128.19999695 -331.36709595 -266.52525711 -265.94935608 -2 -1 -1 
205 5 2 1.00000000 128.19999695 -328.49384308 -266.95720291 -263.32999420 -2 -1 -1 
206 5 1 -1.00000000 129.10000610 -328.44612885 -265.77196121 -259.95880890 -2 -1 -1 
207 5 2 1.00000000 128.19999695 -328.40317535 -265.34608459 -256.06087494 -2 -1 -1 
208 5 1 -1.00000000 129.10000610 -328.45249939 -266.16246033 -252.08846283 -2 -1 -1 
209 5 1 -1.00000000 129.10000610 -331.05150604 -266.77358627 -249.10832596 -2 -1 -1 
210 5 1 -1.00000000 129.10000610 -334.09370422 -265.96747208 -251.04248047 -2 -1 -1 
211 5 2 1.00000000 128.19999695 -337.34860229 -264.21382904 -252.41573715 -2 -1 -1 
212 5 1 -1.00000000 129.10000610 -340.75579071 -262.78267670 -252.10749817 -2 -1 -1 
213 5 1 -1.00000000 129.10000610 -343.49920654 -261.65984726 -249.99076462 -2 -1 -1 
214 5 1 -1.00000000 129.10000610 -346.69538116 -263.06575775 -248.91115189 -2 -1 -1 
215 5 2 1.00000000 128.19999695 -349.23363495 -263.32309723 -246.12419128 -2 -1 -1 
216 5 2 1.00000000 128.19999695 -348.42780304 -260.69395828 -243.13911438 -2 -1 -1 
217 5 1 -1.00000000 129.10000610 -346.59826660 -257.79427719 -244.98168945 -2 -1 -1 
218 5 1 -1.00000000 129.10000610 -344.64206696 -254.49657059 -246.08150864 -2 -1 -1 
219 5 2 1.00000000 128.19999695 -343.63925934 -250.53234863 -245.67780304 -2 -1 -1 
220 5 1 -1.00000000 129.10000610 -341.59417725 -247.60076141 -243.93177795 -2 -1 -1 
221 5 1 -1.00000000 129.10000610 -342.47406006 -243.96934509 -244.46663666 -2 -1 -1 
222 5 1 -1.00000000 129.10000610 -345.59115601 -241.45581436 -244.62060165 -2 -1 -1 
223 5 2 1.00000000 128.19999695 -347.24822998 -240.77087402 -241.23321533 -2 -1 -1 
224 5 1 -1.00000000 129.10000610 -345.83838654 -243.46408844 -238.51755142 -2 -1 -1 
225 5 1 -1.00000000 129.10000610 -345.70652771 -244.85057449 -234.99400711 -2 -1 -1 
226 5 2 1.00000000 128.19999695 -343.71783447 -248.07096481 -233.74133301 -2 -1 -1 
227 5 2 1.00000000 128.19999695 -342.51277924 -249.70476532 -236.69705200 -2 -1 -1 
228 5 2 1.00000000 128.19999695 -343.87367249 -253.31173325 -237.51534271 -2 -1 -1 
229 5 2 1.00000000 128.19999695 -346.21954346 -256.08557510 -239.11698914 -2 -1 -1 
230 5 2 1.00000000 128.19999695 -349.87068939 -254.18308258 -239.99742126 -2 -1 -1 
231 5 1 -1.00000000 129.10000610 -352.02346039 -256.40597916 -238.47619247 -2 -1 -1 
232 5 1 -1.00000000 129.10000610 -354.21533966 -257.81381607 -241.33434677 -2 -1 -1 
233 5 1 -1.00000000 129.10000610 -357.80560303 -256.47061920 -241.38190079 -2 -1 -1 
234 5 2 1.00000000 128.19999695 -359.67999268 -253.32466888 -242.64667511 -2 -1 -1 
235 5 2 1.00000000 128.19999695 -357.24348068 -250.37260056 -242.67853546 -2 -1 -1 
236 5 2 1.00000000 128.19999695 -354.19744110 -250.58994675 -244.83742905 -2 -1 -1 
237 5 1 -1.00000000 129.10000610 -352.52048874 -253.08136749 -247.51795578 -2 -1 -1 
238 5 2 1.00000000 128.19999695 -351.82288742 -256.58961105 -248.85623169 -2 -1 -1 
239 5 1 -1.00000000 129.10000610 -350.99110413 -258.99375916 -251.47800446 -2 -1 -1 
240 5 1 -1.00000000 129.10000610 -351.31297302 -260.57783508 -255.02421570 -2 -1 -1 
241 5 1 -1.00000000 129.10000610 -354.73134232 -262.03020859 -255.19570923 -2 -1 -1 
242 5 2 1.00000000 128.19999695 -355.79722595 -265.54591751 -255.79375076 -2 -1 -1 
243 5 1 -1.00000000 129.10000610 -353.92607117 -268.51000595 -253.55392838 -2 -1 -1 
244 5 2 1.00000000 128.19999695 -355.74274063 -271.87229156 -253.00713348 -2 -1 -1 
245 5 2 1.00000000 128.19999695 -359.26945496 -273.20470428 -253.27245712 -2 -1 -1 
246 5 2 1.00000000 128.19999695 -362.02935028 -276.08858490 -253.29950714 -2 -1 -1 
247 5 1 -1.00000000 129.10000610 -364.51140213 -275.73495483 -255.62851715 -2 -1 -1 
248 5 2 1.00000000 128.19999695 -366.64410019 -274.30482483 -258.25254059 -2 -1 -1 
249 5 1 -1.00000000 129.10000610 -368.00928879 -273.60735321 -261.53317261 -2 -1 -1 
250 5 2 1.00000000 128.19999695 -369.75243378 -271.85939026 -264.28088379 -2 -1 -1 
251 6 2 1.00000000 128.19999695 409.00886869 -470.33490753 -149.38877487 2 -2 -1 
252 6 1 -1.00000000 129.10000610 406.73062181 -471.32538605 -146.39517212 2 -2 -1 
253 6 2 1.00000000 128.19999695 407.87536812 -471.67004013 -142.81161499 2 -2 -1 
254 6 2 1.00000000 128.19999695 411.70781636 -471.57020950 -143.57763290 2 -2 -1 
255 6 2 1.00000000 128.19999695 415.43932617 -471.30519485 -143.67075348 2 -2 -1 
256 6 1 -1.00000000 129.10000610 417.09683800 -469.44780350 -140.57357788 2 -2 -1 
257 6 2 1.00000000 128.19999695 416.69811308 -468.86375809 -136.98795319 2 -2 -1 
258 6 1 -1.00000000 129.10000610 412.96646285 -468.45908356 -135.97643280 2 -2 -1 
259 6 1 -1.00000000 129.10000610 410.48157501 -465.67327499 -134.90147400 2 -2 -1 
260 6 1 -1.00000000 129.10000610 407.68625832 -464.47205734 -137.21438599 2 -2 -1 
261 6 2 1.00000000 128.19999695 407.45136213 -465.95204926 -140.36538696 2 -2 -1 
262 6 1 -1.00000000 129.10000610 406.52087975 -465.53779221 -144.07209778 2 -2 -1 
263 6 1 -1.00000000 129.10000610 409.28303576 -464.57064819 -146.88220215 2 -2 -1 
264 6 1 -1.00000000 129.10000610 412.10790706 -462.12605286 -147.76259613 2 -2 -1 
265 6 2 1.00000000 128.19999695 415.88104522 -462.30486679 -147.33262634 2 -2 -1 
266 6 2 1.00000000 128.19999695 419.18740940 -461.06322098 -148.01772690 2 -2 -1 
267 6 1 -1.00000000 129.10000610 421.37157869 -458.23560715 -146.26735687 2 -2 -1 
268 6 1 -1.00000000 129.10000610 425.20611763 -457.70217514 -145.60714722 2 -2 -1 
269 6 2 1.00000000 128.19999695 428.37596130 -455.04799652 -145.54572678 2 -2 -1 
270 6 1 -1.00000000 129.10000610 429.01640606 -451.76031876 -146.79261398 2 -2 -1 
271 6 1 -1.00000000 129.10000610 431.24341965 -449.93427277 -144.16759872 2 -2 -1 
272 6 1 -1.00000000 129.10000610 434.80829430 -449.89598846 -144.77919006 2 -2 -1 
273 6 2 1.00000000 128.19999695 436.02456284 -453.27650070 -146.45126343 2 -2 -1 
274 6 1 -1.00000000 129.10000610 434.07224083 -455.77548599 -145.04932785 2 -2 -1 
275 6 1 -1.00000000 129.10000610 435.05070686 -456.34509277 -141.47945404 2 -2 -1 
276 6 2 1.00000000 128.19999695 433.41551208 -455.17560196 -138.39747620 2 -2 -1 
277 6 2 1.00000000 128.19999695 429.76646233 -453.69202805 -139.14987946 2 -2 -1 
278 6 2 1.00000000 128.19999695 427.58612347 -451.47624588 -137.57907104 2 -2 -1 
279 6 2 1.00000000 128.19999695 424.90694427 -449.43461990 -136.72404480 2 -2 -1 
280 6 2 1.00000000 128.19999695 421.94145346 -447.38744736 -135.76611328 2 -2 -1 
281 6 1 -1.00000000 129.10000610 420.35053730 -444.86033630 -133.64889526 2 -2 -1 
282 6 1 -1.00000000 129.10000610 421.40590954 -444.73903656 -129.89819336 2 -2 -1 
283 6 1 -1.00000000 129.10000610 422.00711060 -441.61738014 -127.96824646 2 -2 -1 
284 6 2 1.00000000 128.19999695 420.92913055 -438.27148819 -129.37606049 2 -2 -1 
285 6 2 1.00000000 128.19999695 417.35165763 -438.00726509 -130.75238037 2 -2 -1 
286 6 2 1.00000000 128.19999695 415.26336491 -440.99016380 -129.45506287 2 -2 -1 
287 6 1 -1.00000000 129.10000610 413.88675660 -442.13433647 -126.22901917 2 -2 -1 
288 6 2 1.00000000 128.19999695 414.73774267 -443.95722771 -123.14091492 2 -2 -1 
289 6 1 -1.00000000 129.10000610 413.24800730 -445.37458611 -120.44797516 2 -2 -1 
290 6 1 -1.00000000 129.10000610 409.94930935 -446.38111115 -119.01316833 2 -2 -1 
291 6 1 -1.00000000 129.10000610 406.83567190 -448.36816406 -119.24918365 2 -2 -1 
292 6 2 1.00000000 128.19999695 404.17121220 -447.34989929 -117.13414764 2 -2 -1 
293 6 1 -1.00000000 129.10000610 402.13720608 -443.92607117 -117.10609436 2 -2 -1 
294 6 2 1.00000000 128.19999695 403.15327835 -440.54418182 -118.55320740 2 -2 -1 
295 6 2 1.00000000 128.19999695 403.91146755 -437.13991356 -120.52306366 2 -2 -1 
296 6 2 1.00000000 128.19999695 405.20749092 -435.02700233 -123.23066711 2 -2 -1 
297 6 1 -1.00000000 129.10000610 408.80827236 -433.60176277 -123.18910217 2 -2 -1 
298 6 2 1.00000000 128.19999695 412.61900997 -432.58426857 -123.42767334 2 -2 -1 
299 6 1 -1.00000000 129.10000610 414.24293163 -430.59937096 -126.21347046 2 -2 -1 
300 6 2 1.00000000 128.19999695 413.77467853 -427.39750481 -128.47904968 2 -2 -1 
301 7 2 1.00000000 128.19999695 18.87191391 -25.08624840 -826.89283705 0 0 -4 
302 7 1 -1.00000000 129.10000610 22.45717049 -25.64637756 -825.48811650 0 0 -4 
303 7 2 1.00000000 128.19999695 25.39012146 -25.53168678 -827.55680418 0 0 -4 
304 7 2 1.00000000 128.19999695 27.41872787 -23.14121628 -825.41167498 0 0 -4 
305 7 2 1.00000000 128.19999695 28.59862137 -19.50963020 -825.67777991 0 0 -4 
306 7 1 -1.00000000 129.10000610 27.14885139 -16.88141251 -827.65927947 0 0 -4 
307 7 2 1.00000000 128.19999695 23.82707405 -16.41664124 -829.75385541 0 0 -4 
308 7 1 -1.00000000 129.10000610 20.57546997 -14.06720161 -829.60910726 0 0 -4 
309 7 1 -1.00000000 129.10000610 17.99618912 -15.98208714 -831.89525628 0 0 -4 
310 7 1 -1.00000000 129.10000610 16.18299294 -12.95520687 -833.26734090 0 0 -4 
311 7 2 1.00000000 128.19999695 13.94089127 -10.23282528 -834.44620132 0 0 -4 
312 7 1 -1.00000000 129.10000610 12.54828358 -9.21190739 -837.56652927 0 0 -4 
313 7 1 -1.00000000 129.10000610 12.05834389 -7.13419104 -840.83638573 0 0 -4 
314 7 1 -1.00000000 129.10000610 13.04786396 -7.73164463 -844.44329548 0 0 -4 
315 7 2 1.00000000 128.19999695 12.72441101 -7.93929100 -848.00894547 0 0 -4 
316 7 2 1.00000000 128.19999695 12.39805794 -4.93141127 -850.06825066 0 0 -4 
317 7 1 -1.00000000 129.10000610 9.98488903 -1.87806523 -850.16814423 0 0 -4 
318 7 1 -1.00000000 129.10000610 6.66987181 -0.07695366 -849.08800888 0 0 -4 
319 7 2 1.00000000 128.19999695 4.39360952 -3.27274513 -848.17377281 0 0 -4 
320 7 1 -1.00000000 129.10000610 2.65934849 -6.21946764 -846.76504898 0 0 -4 
321 7 1 -1.00000000 129.10000610 -0.98495030 -6.67718649 -846.08876610 0 0 -4 
322 7 1 -1.00000000 129.10000610 -3.30609107 -3.67937946 -845.39707661 0 0 -4 
323 7 2 1.00000000 128.19999695 -1.52728570 -2.25866485 -841.90382576 0 0 -4 
324 7 1 -1.00000000 129.10000610 -1.39464474 -5.50012636 -839.70668030 0 0 -4 
325 7 1 -1.00000000 129.10000610 -3.87705970 -7.94462013 -838.63888454 0 0 -4 
326 7 2 1.00000000 128.19999695 -7.35989666 -7.61561060 -840.10310936 0 0 -4 
327 7 2 1.00000000 128.19999695 -6.98249483 -8.58015728 -843.77035236 0 0 -4 
328 7 2 1.00000000 128.19999695 -8.32202911 -6.86753893 -846.97388458 0 0 -4 
329 7 2 1.00000000 128.19999695 -6.46231508 -8.16128063 -850.15872765 0 0 -4 
330 7 2 1.00000000 128.19999695 -3.90189099 -9.02951908 -852.81776428 0 0 -4 
331 7 1 -1.00000000 129.10000610 -1.20163047 -10.60131741 -850.81621552 0 0 -4 
332 7 1 -1.00000000 129.10000610 2.18426919 -11.25201416 -850.10849762 0 0 -4 
333 7 1 -1.00000000 129.10000610 4.55767298 -12.38810444 -847.20883942 0 0 -4 
334 7 2 1.00000000 128.19999695 3.56080675 -11.90310383 -843.20275021 0 0 -4 
335 7 2 1.00000000 128.19999695 -0.13911508 -12.55376148 -842.72771168 0 0 -4 
336 7 2 1.00000000 128.19999695 -3.10921359 -15.06157303 -842.58593082 0 0 -4 
337 7 1 -1.00000000 129.10000610 -6.23869944 -14.42080879 -840.28222466 0 0 -4 
338 7 2 1.00000000 128.19999695 -9.39909649 -14.80411816 -842.59574890 0 0 -4 
339 7 1 -1.00000000 129.10000610 -11.69883537 -15.80278111 -845.44599724 0 0 -4 
340 7 1 -1.00000000 129.10000610 -14.30111313 -12.72590256 -846.14728355 0 0 -4 
341 7 1 -1.00000000 129.10000610 -14.03975677 -9.13998413 -844.87185287 0 0 -4 
342 7 2 1.00000000 128.19999695 -16.89253807 -8.02724266 -842.56554604 0 0 -4 
343 7 1 -1.00000000 129.10000610 -16.48655319 -9.63760471 -839.08359146 0 0 -4 
344 7 2 1.00000000 128.19999695 -16.18094254 -8.97163200 -835.39943123 0 0 -4 
345 7 2 1.00000000 128.19999695 -15.43876839 -11.22766304 -832.18007946 0 0 -4 
346 7 2 1.00000000 128.19999695 -15.06184196 -14.51746845 -830.15164119 0 0 -4 
347 7 1 -1.00000000 129.10000610 -11.78555775 -15.79327393 -828.67565179 0 0 -4 
348 7 2 1.00000000 128.19999695 -10.87098789 -14.47107601 -825.27173281 0 0 -4 
349 7 1 -1.00000000 129.10000610 -10.28698158 -13.53940868 -822.00057745 0 0 -4 
350 7 2 1.00000000 128.19999695 -7.22037649 -15.26760578 -820.54429531 0 0 -4 
351 8 2 1.00000000 128.19999695 23.35593605 -101.38097382 647.50160408 0 0 3 
352 8 1 -1.00000000 129.10000610 24.97540092 -98.29779053 649.14203835 0 0 3 
353 8 2 1.00000000 128.19999695 28.50072861 -98.62199402 650.78608704 0 0 3 
354 8 2 1.00000000 128.19999695 31.69060898 -96.84194183 650.88348007 0 0 3 
355 8 2 1.00000000 128.19999695 34.60243225 -96.06494141 648.45155525 0 0 3 
356 8 1 -1.00000000 129.10000610 37.56785202 -95.64038086 650.86244583 0 0 3 
357 8 2 1.00000000 128.19999695 37.62507629 -92.46986389 653.41668701 0 0 3 
358 8 1 -1.00000000 129.10000610 34.25154495 -90.32626343 652.32589340 0 0 3 
359 8 1 -1.00000000 129.10000610 30.61834526 -90.22985077 651.86350250 0 0 3 
360 8 1 -1.00000000 129.10000610 29.10672188 -87.92952728 649.07527161 0 0 3 
361 8 2 1.00000000 128.19999695 31.01616287 -88.24098206 645.60374069 0 0 3 
362 8 1 -1.00000000 129.10000610 32.49529266 -85.73562622 643.72728729 0 0 3 
363 8 1 -1.00000000 129.10000610 35.80411148 -84.23675537 642.52576637 0 0 3 
364 8 1 -1.00000000 129.10000610 38.73291016 -83.83193970 645.25628090 0 0 3 
365 8 2 1.00000000 128.19999695 38.72805786 -87.05265045 647.22589302 0 0 3 
366 8 2 1.00000000 128.19999695 38.41751099 -90.19877625 644.51393127 0 0 3 
367 8 1 -1.00000000 129.10000610 35.93485641 -92.62191010 643.51834679 0 0 3 
368 8 1 -1.00000000 129.10000610 36.28969955 -96.27258301 642.97694969 0 0 3 