ITEM: TIMESTEP
40550000 
ITEM: NUMBER OF ATOMS 
25000 
ITEM: BOX BOUNDS pp pp pp 
-103.678017 103.678017 
-103.678017 103.678017 
-103.678017 103.678017 
ITEM: ATOMS id mol type q mass xu yu zu ix iy iz 
1 1 2 1.00000000 128.19999695 415.77240705 74.63658905 -309.72676849 2 0 -1 
2 1 1 -1.00000000 129.10000610 418.38850403 74.74442291 -312.67140961 2 0 -2 
3 1 2 1.00000000 128.19999695 417.02022481 76.62154388 -315.86119080 2 0 -2 
4 1 2 1.00000000 128.19999695 416.93505716 73.15109253 -317.73116302 2 0 -2 
5 1 2 1.00000000 128.19999695 417.08040786 71.00377655 -320.79830170 2 0 -2 
6 1 1 -1.00000000 129.10000610 414.57917117 70.71961975 -323.89505768 2 0 -2 
7 1 2 1.00000000 128.19999695 411.12327838 68.57144165 -324.09139252 2 0 -2 
8 1 1 -1.00000000 129.10000610 407.51084614 67.45501709 -323.55211639 2 0 -2 
9 1 1 -1.00000000 129.10000610 404.74667358 67.01613617 -325.88347626 2 0 -2 
10 1 1 -1.00000000 129.10000610 402.43840599 69.79629517 -324.38698578 2 0 -2 
11 1 2 1.00000000 128.19999695 399.45227814 67.97377014 -326.23601532 2 0 -2 
12 1 1 -1.00000000 129.10000610 399.23705482 66.81975555 -329.96862030 2 0 -2 
13 1 1 -1.00000000 129.10000610 400.62081528 69.74610901 -331.90451813 2 0 -2 
14 1 1 -1.00000000 129.10000610 401.87096405 73.19344330 -330.77638245 2 0 -2 
15 1 2 1.00000000 128.19999695 401.79550171 75.52980042 -328.03400421 2 0 -2 
16 1 2 1.00000000 128.19999695 399.48006725 75.33043671 -325.32588959 2 0 -2 
17 1 1 -1.00000000 129.10000610 398.52678871 77.50551605 -322.36791229 2 0 -2 
18 1 1 -1.00000000 129.10000610 401.28638554 78.50064087 -319.50660706 2 0 -2 
19 1 2 1.00000000 128.19999695 404.79897213 78.55877686 -321.20285797 2 0 -2 
20 1 1 -1.00000000 129.10000610 407.93347597 76.05401611 -321.98670959 2 0 -2 
21 1 1 -1.00000000 129.10000610 408.49812317 73.77587128 -319.31232452 2 0 -2 
22 1 1 -1.00000000 129.10000610 406.05580330 73.69201660 -316.17700195 2 0 -2 
23 1 2 1.00000000 128.19999695 402.97406673 71.75858307 -315.10834503 2 0 -2 
24 1 1 -1.00000000 129.10000610 399.80227852 69.87230682 -315.72100830 2 0 -2 
25 1 1 -1.00000000 129.10000610 396.54149628 68.32039642 -316.84304810 2 0 -2 
26 1 2 1.00000000 128.19999695 393.45226479 69.23435974 -315.39530945 2 0 -2 
27 1 2 1.00000000 128.19999695 392.07703209 70.92094421 -312.45107269 2 0 -2 
28 1 2 1.00000000 128.19999695 390.77305984 73.44507599 -310.05916595 2 0 -1 
29 1 2 1.00000000 128.19999695 390.58308220 77.13517761 -308.41927338 2 0 -1 
30 1 2 1.00000000 128.19999695 388.90315628 80.35444641 -309.82907867 2 0 -1 
31 1 1 -1.00000000 129.10000610 385.14208984 80.75582886 -310.76915741 2 0 -1 
32 1 1 -1.00000000 129.10000610 384.86735344 78.15058899 -313.15264130 2 0 -2 
33 1 1 -1.00000000 129.10000610 387.24227715 76.10813904 -315.18113708 2 0 -2 
34 1 2 1.00000000 128.19999695 387.47087860 77.80335999 -318.51074982 2 0 -2 
35 1 2 1.00000000 128.19999695 389.21323776 78.68955994 -322.03744507 2 0 -2 
36 1 2 1.00000000 128.19999695 391.92847633 81.54803467 -321.57193756 2 0 -2 
37 1 1 -1.00000000 129.10000610 392.65245819 85.09188080 -320.80148315 2 0 -2 
38 1 2 1.00000000 128.19999695 392.27896118 88.73664856 -321.40316772 2 0 -2 
39 1 1 -1.00000000 129.10000610 388.80416679 89.02515411 -321.49795532 2 0 -2 
40 1 1 -1.00000000 129.10000610 386.74460411 85.98677826 -321.25414276 2 0 -2 
41 1 1 -1.00000000 129.10000610 384.72714615 83.14189148 -322.86914062 2 0 -2 
42 1 2 1.00000000 128.19999695 382.93748093 79.97943115 -324.27046967 2 0 -2 
43 1 1 -1.00000000 129.10000610 384.52510643 79.62096405 -327.84777832 2 0 -2 
44 1 2 1.00000000 128.19999695 381.64769745 79.01976776 -330.35684204 2 0 -2 
45 1 2 1.00000000 128.19999695 383.12591934 79.35846710 -333.88936615 2 0 -2 
46 1 2 1.00000000 128.19999695 380.36597061 80.38768005 -336.66026306 2 0 -2 
47 1 1 -1.00000000 129.10000610 379.84975052 78.04406738 -339.62648773 2 0 -2 
48 1 2 1.00000000 128.19999695 379.23443985 78.02933502 -343.61441803 2 0 -2 
49 1 1 -1.00000000 129.10000610 380.16996765 78.89837646 -347.29792023 2 0 -2 
50 1 2 1.00000000 128.19999695 378.81501389 82.55709076 -348.02016449 2 0 -2 
51 2 2 1.00000000 128.19999695 562.24606705 456.36446381 -218.43586826 3 2 -1 
52 2 1 -1.00000000 129.10000610 565.76519775 456.68349838 -216.46559906 3 2 -1 
53 2 2 1.00000000 128.19999695 568.10811234 459.14308929 -215.05362272 3 2 -1 
54 2 2 1.00000000 128.19999695 570.01000977 462.19168854 -215.03366089 3 2 -1 
55 2 2 1.00000000 128.19999695 573.36356354 462.78290558 -216.65706825 3 2 -1 
56 2 1 -1.00000000 129.10000610 574.51220322 459.53747177 -218.25951576 3 2 -1 
57 2 2 1.00000000 128.19999695 572.35704803 459.00197601 -221.22799683 3 2 -1 
58 2 1 -1.00000000 129.10000610 569.86079025 461.07443619 -223.33186817 3 2 -1 
59 2 1 -1.00000000 129.10000610 566.24202347 461.43221664 -223.72977257 3 2 -1 
60 2 1 -1.00000000 129.10000610 564.38142395 458.47110748 -225.19577026 3 2 -1 
61 2 2 1.00000000 128.19999695 566.96504593 455.77944946 -224.51316261 3 2 -1 
62 2 1 -1.00000000 129.10000610 567.15018082 452.95125580 -221.75527859 3 2 -1 
63 2 1 -1.00000000 129.10000610 565.59162140 451.40394592 -218.50515747 3 2 -1 
64 2 1 -1.00000000 129.10000610 563.43999481 450.62329865 -215.63076591 3 2 -1 
65 2 2 1.00000000 128.19999695 560.34454727 448.37110901 -216.85790062 3 2 -1 
66 2 2 1.00000000 128.19999695 559.93890762 448.11566162 -220.54907608 3 2 -1 
67 2 1 -1.00000000 129.10000610 556.24564362 447.28897476 -220.89662266 3 2 -1 
68 2 1 -1.00000000 129.10000610 553.10807800 448.82473373 -222.13272953 3 2 -1 
69 2 2 1.00000000 128.19999695 549.37039185 448.66822052 -223.26861954 3 2 -1 
70 2 1 -1.00000000 129.10000610 545.61215973 448.22222137 -222.45195675 3 2 -1 
71 2 1 -1.00000000 129.10000610 543.58148956 450.27565002 -225.28669739 3 2 -1 
72 2 1 -1.00000000 129.10000610 539.83380890 449.56716156 -225.97877121 3 2 -1 
73 2 2 1.00000000 128.19999695 539.11569977 445.84364510 -226.83723450 3 2 -1 
74 2 1 -1.00000000 129.10000610 539.46003723 443.61752129 -229.99630165 3 2 -1 
75 2 1 -1.00000000 129.10000610 541.24227142 440.38981056 -230.54947281 3 2 -1 
76 2 2 1.00000000 128.19999695 543.17236328 437.77268791 -232.45227051 3 2 -1 
77 2 2 1.00000000 128.19999695 544.47894287 435.40242386 -229.78939629 3 2 -1 
78 2 2 1.00000000 128.19999695 546.37587738 432.15818405 -228.94623184 3 2 -1 
79 2 2 1.00000000 128.19999695 548.00582123 430.69152164 -226.08140373 3 2 -1 
80 2 2 1.00000000 128.19999695 549.43632507 428.75820923 -223.01775455 3 2 -1 
81 2 1 -1.00000000 129.10000610 548.61106110 430.32053280 -219.92579079 3 2 -1 
82 2 1 -1.00000000 129.10000610 545.13481140 431.18299103 -220.80975723 3 2 -1 
83 2 1 -1.00000000 129.10000610 541.89479828 433.26741600 -219.60278130 3 2 -1 
84 2 2 1.00000000 128.19999695 541.01121521 433.46305656 -216.10577297 3 2 -1 
85 2 2 1.00000000 128.19999695 539.35614014 435.91560364 -213.65602636 3 2 -1 
86 2 2 1.00000000 128.19999695 535.71230316 434.78520012 -212.22799110 3 2 -1 
87 2 1 -1.00000000 129.10000610 533.80169678 432.95952415 -214.41478395 3 2 -1 
88 2 2 1.00000000 128.19999695 532.79828644 430.35570240 -217.15694714 3 2 -1 
89 2 1 -1.00000000 129.10000610 534.24601746 430.84603691 -220.71867275 3 2 -1 
90 2 1 -1.00000000 129.10000610 536.86461639 431.06834793 -223.87965012 3 2 -1 
91 2 1 -1.00000000 129.10000610 536.82477570 427.79162121 -225.58612251 3 2 -1 
92 2 2 1.00000000 128.19999695 539.51127625 426.96236038 -227.97838020 3 2 -1 
93 2 1 -1.00000000 129.10000610 540.42610931 423.69558430 -229.19937325 3 2 -1 
94 2 2 1.00000000 128.19999695 541.76425934 420.70901823 -227.37257576 3 2 -1 
95 2 2 1.00000000 128.19999695 539.39110565 420.96656752 -224.35272789 3 2 -1 
96 2 2 1.00000000 128.19999695 537.73796082 421.02723598 -220.80513191 3 2 -1 
97 2 1 -1.00000000 129.10000610 535.52396393 422.83306122 -218.17649841 3 2 -1 
98 2 2 1.00000000 128.19999695 534.83624268 421.64363575 -214.59561920 3 2 -1 
99 2 1 -1.00000000 129.10000610 536.28239441 422.92765617 -210.99426174 3 2 -1 
100 2 2 1.00000000 128.19999695 537.92326355 421.97879696 -207.70737517 3 2 -1 
101 3 2 1.00000000 128.19999695 302.30719757 -120.39123535 -15.73976135 1 -1 0 
102 3 1 -1.00000000 129.10000610 305.54065704 -118.05989838 -15.40573120 1 -1 0 
103 3 2 1.00000000 128.19999695 307.72576904 -117.25817871 -18.69464111 1 -1 0 
104 3 2 1.00000000 128.19999695 308.25411987 -116.63370514 -22.30282974 1 -1 0 
105 3 2 1.00000000 128.19999695 311.53549957 -115.36407471 -24.08912659 2 -1 0 
106 3 1 -1.00000000 129.10000610 312.40378571 -112.07686615 -22.32012177 2 -1 0 
107 3 2 1.00000000 128.19999695 315.28756714 -109.73693848 -21.07711983 2 -1 0 
108 3 1 -1.00000000 129.10000610 314.80166626 -109.11347961 -17.21611404 2 -1 0 
109 3 1 -1.00000000 129.10000610 311.33029938 -109.20518494 -16.01119423 2 -1 0 
110 3 1 -1.00000000 129.10000610 306.96800232 -109.94135284 -16.46833992 1 -1 0 
111 3 2 1.00000000 128.19999695 305.49542999 -111.88362122 -13.53751373 1 -1 0 
112 3 1 -1.00000000 129.10000610 308.36475372 -111.64340210 -10.74643707 1 -1 0 
113 3 1 -1.00000000 129.10000610 309.77119446 -112.22626495 -7.60827398 1 -1 0 
114 3 1 -1.00000000 129.10000610 311.41194916 -110.87388611 -4.44474173 2 -1 0 
115 3 2 1.00000000 128.19999695 315.31653595 -110.61872864 -4.98643970 2 -1 0 
116 3 2 1.00000000 128.19999695 316.04241943 -106.98927307 -4.34850311 2 -1 0 
117 3 1 -1.00000000 129.10000610 317.09253693 -103.43856049 -4.19266748 2 0 0 
118 3 1 -1.00000000 129.10000610 315.01702118 -101.10488129 -6.40448761 2 0 0 
119 3 2 1.00000000 128.19999695 311.54428101 -100.07398987 -5.49254370 2 0 0 
120 3 1 -1.00000000 129.10000610 308.00127411 -99.05408478 -4.76543331 1 0 0 
121 3 1 -1.00000000 129.10000610 307.49641418 -95.60189819 -3.13093662 1 0 0 
122 3 1 -1.00000000 129.10000610 305.69620514 -96.58818817 0.01911873 1 0 0 
123 3 2 1.00000000 128.19999695 306.17388153 -98.49519348 3.65016294 1 0 0 
124 3 1 -1.00000000 129.10000610 308.63408661 -97.91120148 6.30087423 1 0 0 
125 3 1 -1.00000000 129.10000610 306.41276550 -96.09150696 8.73301125 1 0 0 
126 3 2 1.00000000 128.19999695 302.57977295 -95.69750977 7.93623877 1 0 0 
127 3 2 1.00000000 128.19999695 302.75605011 -92.17692566 6.62978029 1 0 0 
128 3 2 1.00000000 128.19999695 305.19946289 -91.26044464 4.07580328 1 0 0 
129 3 2 1.00000000 128.19999695 305.95642853 -90.75275421 0.51354736 1 0 0 
130 3 2 1.00000000 128.19999695 305.61464691 -89.64290619 -3.01585698 1 0 0 
131 3 1 -1.00000000 129.10000610 309.20371246 -88.15368652 -3.38991117 1 0 0 
132 3 1 -1.00000000 129.10000610 310.74250793 -87.13697052 0.27569458 1 0 0 
133 3 1 -1.00000000 129.10000610 308.38940430 -85.03400421 2.43367982 1 0 0 
134 3 2 1.00000000 128.19999695 305.67385101 -83.55035400 0.03376855 1 0 0 
135 3 2 1.00000000 128.19999695 304.93224335 -79.89798737 -0.87193555 1 0 0 
136 3 2 1.00000000 128.19999695 306.20735931 -76.49097443 -2.55155063 1 0 0 
137 3 1 -1.00000000 129.10000610 309.38098145 -76.04127502 -3.77993274 1 0 0 
138 3 2 1.00000000 128.19999695 309.73101044 -74.12191010 -6.84224606 1 0 0 
139 3 1 -1.00000000 129.10000610 311.67648315 -71.48747253 -9.12731266 2 0 0 
140 3 1 -1.00000000 129.10000610 313.41674042 -72.22367096 -12.29034138 2 0 0 
141 3 1 -1.00000000 129.10000610 312.46546173 -75.57644653 -13.48799706 2 0 0 
142 3 2 1.00000000 128.19999695 314.58980560 -78.10079193 -11.84041309 2 0 0 
143 3 1 -1.00000000 129.10000610 315.68984985 -80.61477661 -9.17361736 2 0 0 
144 3 2 1.00000000 128.19999695 318.81388855 -79.20767212 -8.16743469 2 0 0 
145 3 2 1.00000000 128.19999695 322.27086639 -79.43988800 -8.43508339 2 0 0 
146 3 2 1.00000000 128.19999695 324.02154541 -79.65508270 -11.74077225 2 0 0 
147 3 1 -1.00000000 129.10000610 322.01890564 -81.03407288 -14.59017849 2 0 0 
148 3 2 1.00000000 128.19999695 319.82418060 -81.01457214 -17.59646416 2 0 0 
149 3 1 -1.00000000 129.10000610 317.95381165 -77.32838440 -18.13516045 2 0 0 
150 3 2 1.00000000 128.19999695 315.63545227 -78.56700897 -20.89685059 2 0 0 
151 4 2 1.00000000 128.19999695 -356.48395157 288.89711761 -17.96574783 -2 1 0 
152 4 1 -1.00000000 129.10000610 -355.93803787 286.11477661 -15.36277962 -2 1 0 
153 4 2 1.00000000 128.19999695 -354.54404449 286.32396698 -11.88168144 -2 1 0 
154 4 2 1.00000000 128.19999695 -353.25051880 289.39437103 -10.19107533 -2 1 0 
155 4 2 1.00000000 128.19999695 -353.63967133 290.13700867 -6.48889160 -2 1 0 
156 4 1 -1.00000000 129.10000610 -353.35247421 288.48734283 -3.22333431 -2 1 0 
157 4 2 1.00000000 128.19999695 -354.35912704 290.94530487 -0.12974653 -2 1 0 
158 4 1 -1.00000000 129.10000610 -352.31804276 293.97361755 1.03960299 -2 1 0 
159 4 1 -1.00000000 129.10000610 -352.82551193 293.33570099 4.93710470 -2 1 0 
160 4 1 -1.00000000 129.10000610 -351.75270462 289.68690491 5.63058710 -2 1 0 
161 4 2 1.00000000 128.19999695 -353.40613937 287.65726471 8.40541363 -2 1 0 
162 4 1 -1.00000000 129.10000610 -352.77312088 287.52586365 12.11698627 -2 1 0 
163 4 1 -1.00000000 129.10000610 -353.77947998 290.46449280 14.68923473 -2 1 0 
164 4 1 -1.00000000 129.10000610 -351.69088745 289.84660339 17.50796890 -2 1 0 
165 4 2 1.00000000 128.19999695 -348.32462311 290.88072968 19.10291290 -2 1 0 
166 4 2 1.00000000 128.19999695 -346.30152893 293.68300629 17.88934326 -2 1 0 
167 4 1 -1.00000000 129.10000610 -342.98339081 295.91412354 17.72836113 -2 1 0 
168 4 1 -1.00000000 129.10000610 -340.27944183 297.06993866 15.16498470 -2 1 0 
169 4 2 1.00000000 128.19999695 -337.23716736 298.60693359 13.24166965 -2 1 0 
170 4 1 -1.00000000 129.10000610 -337.68476105 296.17311859 9.92783642 -2 1 0 
171 4 1 -1.00000000 129.10000610 -336.04442596 294.00308990 7.51138639 -2 1 0 
172 4 1 -1.00000000 129.10000610 -332.86749268 292.63263702 6.66237450 -2 1 0 
173 4 2 1.00000000 128.19999695 -329.74730682 290.04714966 7.26761389 -2 1 0 
174 4 1 -1.00000000 129.10000610 -331.41212463 287.86882019 10.24604225 -2 1 0 
175 4 1 -1.00000000 129.10000610 -329.40289307 287.97286224 13.28755379 -2 1 0 
176 4 2 1.00000000 128.19999695 -331.53845215 286.71793365 16.19649315 -2 1 0 
177 4 2 1.00000000 128.19999695 -329.64817047 283.09255219 16.06007385 -2 1 0 
178 4 2 1.00000000 128.19999695 -326.59159851 281.67749786 17.55670166 -2 1 0 
179 4 2 1.00000000 128.19999695 -325.94766235 279.98181152 21.00815964 -2 1 0 
180 4 2 1.00000000 128.19999695 -326.72782135 282.46372223 23.93787003 -2 1 0 
181 4 1 -1.00000000 129.10000610 -325.19050598 283.53999329 27.31438446 -2 1 0 
182 4 1 -1.00000000 129.10000610 -327.36066437 282.00799561 30.50920677 -2 1 0 
183 4 1 -1.00000000 129.10000610 -330.44709778 279.78943634 29.74380112 -2 1 0 
184 4 2 1.00000000 128.19999695 -328.54927063 276.45403290 29.37037849 -2 1 0 
185 4 2 1.00000000 128.19999695 -324.67695618 276.68888092 29.95973396 -2 1 0 
186 4 2 1.00000000 128.19999695 -321.56846619 278.86323547 29.06161690 -2 1 0 
187 4 1 -1.00000000 129.10000610 -321.25503540 280.81211090 32.48168182 -2 1 0 
188 4 2 1.00000000 128.19999695 -317.98258209 282.39926910 32.31061172 -2 1 0 
189 4 1 -1.00000000 129.10000610 -314.03672028 282.04080200 32.24118423 -2 1 0 
190 4 1 -1.00000000 129.10000610 -313.16740417 279.91679382 35.47066116 -2 1 0 
191 4 1 -1.00000000 129.10000610 -309.90167999 280.53826141 37.41573334 -1 1 0 
192 4 2 1.00000000 128.19999695 -310.61785126 278.48503876 40.41404343 -1 1 0 
193 4 1 -1.00000000 129.10000610 -310.09598541 280.89521027 43.51394272 -1 1 0 
194 4 2 1.00000000 128.19999695 -306.48644257 281.02845001 44.99277496 -1 1 0 
195 4 2 1.00000000 128.19999695 -303.13881683 281.74440765 43.63407135 -1 1 0 
196 4 2 1.00000000 128.19999695 -301.83623505 284.12036896 41.14411926 -1 1 0 
197 4 1 -1.00000000 129.10000610 -302.50165558 287.32991028 39.15266418 -1 1 0 
198 4 2 1.00000000 128.19999695 -300.59140778 289.20565796 36.37180710 -1 1 0 
199 4 1 -1.00000000 129.10000610 -296.88892365 290.39917755 36.20157623 -1 1 0 
200 4 2 1.00000000 128.19999695 -294.71029663 292.73293304 33.81973648 -1 1 0 
201 5 2 1.00000000 128.19999695 -305.11770630 -179.21906090 -170.33109665 -1 -1 -1 
202 5 1 -1.00000000 129.10000610 -305.90386963 -176.95623779 -167.48795319 -1 -1 -1 
203 5 2 1.00000000 128.19999695 -309.55186462 -177.58838844 -166.70203400 -1 -1 -1 
204 5 2 1.00000000 128.19999695 -312.14002991 -177.10729218 -169.43117905 -2 -1 -1 
205 5 2 1.00000000 128.19999695 -315.60018158 -178.54120064 -169.24737930 -2 -1 -1 
206 5 1 -1.00000000 129.10000610 -318.46542358 -180.01874161 -171.28388977 -2 -1 -1 
207 5 2 1.00000000 128.19999695 -321.25827026 -182.02058601 -172.54056549 -2 -1 -1 
208 5 1 -1.00000000 129.10000610 -323.74195099 -181.77958679 -175.43558121 -2 -1 -1 
209 5 1 -1.00000000 129.10000610 -326.14744568 -179.07148361 -174.57134247 -2 -1 -1 
210 5 1 -1.00000000 129.10000610 -327.96234894 -177.54409409 -171.44057846 -2 -1 -1 
211 5 2 1.00000000 128.19999695 -331.67050171 -178.25282097 -170.93566132 -2 -1 -1 
212 5 1 -1.00000000 129.10000610 -335.64083099 -177.49587631 -171.55261612 -2 -1 -1 
213 5 1 -1.00000000 129.10000610 -338.90660095 -178.87889862 -172.17340851 -2 -1 -1 
214 5 1 -1.00000000 129.10000610 -342.58222961 -180.41272354 -172.15454483 -2 -1 -1 
215 5 2 1.00000000 128.19999695 -344.74110413 -178.36065674 -169.69739914 -2 -1 -1 
216 5 2 1.00000000 128.19999695 -348.32593536 -177.77986526 -168.70590210 -2 -1 -1 
217 5 1 -1.00000000 129.10000610 -349.76445007 -173.94940567 -168.85552597 -2 -1 -1 
218 5 1 -1.00000000 129.10000610 -349.67647552 -171.82142258 -172.03289413 -2 -1 -1 
219 5 2 1.00000000 128.19999695 -346.97033691 -168.92613983 -171.27405930 -2 -1 -1 
220 5 1 -1.00000000 129.10000610 -347.83734894 -166.09437561 -173.79423141 -2 -1 -1 
221 5 1 -1.00000000 129.10000610 -349.76356506 -163.74441910 -176.46314240 -2 -1 -1 
222 5 1 -1.00000000 129.10000610 -353.24007416 -165.31089020 -175.60687828 -2 -1 -1 
223 5 2 1.00000000 128.19999695 -354.89340591 -167.80588150 -173.34652710 -2 -1 -1 
224 5 1 -1.00000000 129.10000610 -357.83409500 -165.78628159 -171.68924713 -2 -1 -1 
225 5 1 -1.00000000 129.10000610 -358.80541611 -162.12379074 -172.71891403 -2 -1 -1 
226 5 2 1.00000000 128.19999695 -357.24091339 -160.02745438 -175.68874168 -2 -1 -1 
227 5 2 1.00000000 128.19999695 -357.58000565 -162.38790894 -178.79903221 -2 -1 -1 
228 5 2 1.00000000 128.19999695 -354.99890518 -163.09678268 -181.59113884 -2 -1 -1 
229 5 2 1.00000000 128.19999695 -352.88612747 -165.92207718 -182.38366508 -2 -1 -1 
230 5 2 1.00000000 128.19999695 -350.51167297 -168.39233780 -184.24852753 -2 -1 -1 
231 5 1 -1.00000000 129.10000610 -351.24583435 -168.67050934 -187.90539742 -2 -1 -1 
232 5 1 -1.00000000 129.10000610 -350.26741028 -172.41825104 -188.60960197 -2 -1 -1 
233 5 1 -1.00000000 129.10000610 -353.82939911 -174.12523270 -188.58294868 -2 -1 -1 
234 5 2 1.00000000 128.19999695 -354.74977112 -175.42653465 -192.37526321 -2 -1 -1 
235 5 2 1.00000000 128.19999695 -356.82398987 -178.49715614 -191.91680050 -2 -1 -1 
236 5 2 1.00000000 128.19999695 -359.64086533 -180.84234238 -191.00689888 -2 -1 -1 
237 5 1 -1.00000000 129.10000610 -358.27621078 -184.03729630 -191.72805882 -2 -1 -1 
238 5 2 1.00000000 128.19999695 -354.76680374 -185.80445862 -191.64227200 -2 -1 -1 
239 5 1 -1.00000000 129.10000610 -353.54433823 -186.20900726 -195.08168983 -2 -1 -1 
240 5 1 -1.00000000 129.10000610 -354.22398758 -186.11455345 -199.09060097 -2 -1 -1 
241 5 1 -1.00000000 129.10000610 -354.94510269 -187.16145515 -202.63621950 -2 -1 -1 
242 5 2 1.00000000 128.19999695 -353.42212677 -188.15568924 -206.10348856 -2 -1 -1 
243 5 1 -1.00000000 129.10000610 -350.84318924 -190.57319450 -204.49401975 -2 -1 -1 
244 5 2 1.00000000 128.19999695 -350.80393600 -194.24205685 -204.65124273 -2 -1 -1 
245 5 2 1.00000000 128.19999695 -353.99096680 -195.92130184 -205.44672775 -2 -1 -1 
246 5 2 1.00000000 128.19999695 -357.46117401 -194.52398682 -203.94169641 -2 -1 -1 
247 5 1 -1.00000000 129.10000610 -359.48940277 -197.76556301 -204.19114590 -2 -1 -1 
248 5 2 1.00000000 128.19999695 -359.77715302 -199.94169617 -207.35046112 -2 -1 -1 
249 5 1 -1.00000000 129.10000610 -358.22536469 -202.79880381 -209.66617489 -2 -1 -1 
250 5 2 1.00000000 128.19999695 -359.14318848 -204.15120244 -212.91969728 -2 -1 -1 
251 6 2 1.00000000 128.19999695 376.82378769 -397.11020851 -89.13088226 2 -2 0 
252 6 1 -1.00000000 129.10000610 375.35655594 -396.84552002 -85.29094696 2 -2 0 
253 6 2 1.00000000 128.19999695 371.61775970 -397.67128754 -85.59471130 2 -2 0 
254 6 2 1.00000000 128.19999695 369.79265213 -398.38130569 -82.29769135 2 -2 0 
255 6 2 1.00000000 128.19999695 370.96849442 -401.12191582 -79.55256653 2 -2 0 
256 6 1 -1.00000000 129.10000610 373.72298431 -399.53468132 -77.54619598 2 -2 0 
257 6 2 1.00000000 128.19999695 377.61705780 -399.83871746 -78.92223358 2 -2 0 
258 6 1 -1.00000000 129.10000610 380.86351395 -401.16868877 -79.77320862 2 -2 0 
259 6 1 -1.00000000 129.10000610 382.68361664 -398.66232300 -81.99250793 2 -2 0 
260 6 1 -1.00000000 129.10000610 385.50593185 -396.63750458 -80.44942474 2 -2 0 
261 6 2 1.00000000 128.19999695 387.24914932 -397.38667488 -77.11137390 2 -2 0 
262 6 1 -1.00000000 129.10000610 390.46176529 -397.19950485 -75.46884918 2 -2 0 
263 6 1 -1.00000000 129.10000610 391.59141541 -394.63439751 -72.62896729 2 -2 0 
264 6 1 -1.00000000 129.10000610 393.35950470 -392.14166260 -69.87626648 2 -2 0 
265 6 2 1.00000000 128.19999695 390.54818344 -391.66235924 -67.54602814 2 -2 0 
266 6 2 1.00000000 128.19999695 388.83385086 -394.18738747 -65.20180511 2 -2 0 
267 6 1 -1.00000000 129.10000610 386.52743530 -395.35378265 -62.79916763 2 -2 0 
268 6 1 -1.00000000 129.10000610 388.11636543 -396.87085342 -59.80470276 2 -2 0 
269 6 2 1.00000000 128.19999695 390.54174805 -399.61288357 -60.64692307 2 -2 0 
270 6 1 -1.00000000 129.10000610 393.62411499 -398.93387413 -58.76024628 2 -2 0 
271 6 1 -1.00000000 129.10000610 394.06447601 -400.34245872 -55.26524353 2 -2 0 
272 6 1 -1.00000000 129.10000610 396.39054871 -398.54089165 -53.07435608 2 -2 0 
273 6 2 1.00000000 128.19999695 396.23651695 -394.78654099 -54.21375275 2 -2 0 
274 6 1 -1.00000000 129.10000610 396.22431755 -391.76644707 -51.64119339 2 -2 0 
275 6 1 -1.00000000 129.10000610 393.55667686 -392.46920776 -49.18624115 2 -2 0 
276 6 2 1.00000000 128.19999695 390.08557892 -393.79923439 -48.98663330 2 -2 0 
277 6 2 1.00000000 128.19999695 389.80089569 -394.84383583 -45.32825851 2 -2 0 
278 6 2 1.00000000 128.19999695 388.92643738 -397.05319977 -42.46584702 2 -2 0 
279 6 2 1.00000000 128.19999695 385.33536911 -397.30467033 -41.30983353 2 -2 0 
280 6 2 1.00000000 128.19999695 383.07203865 -396.24675179 -38.54993057 2 -2 0 
281 6 1 -1.00000000 129.10000610 380.86569214 -398.22358322 -35.93634033 2 -2 0 
282 6 1 -1.00000000 129.10000610 378.76132965 -398.44053841 -32.51385880 2 -2 0 
283 6 1 -1.00000000 129.10000610 375.34085083 -399.64296246 -32.06943512 2 -2 0 
284 6 2 1.00000000 128.19999695 375.71560669 -403.37373924 -31.26706886 2 -2 0 
285 6 2 1.00000000 128.19999695 374.84194565 -407.01378393 -30.07775688 2 -2 0 
286 6 2 1.00000000 128.19999695 375.89372253 -407.39501238 -26.45940590 2 -2 0 
287 6 1 -1.00000000 129.10000610 373.48637009 -406.16356182 -23.81831551 2 -2 0 
288 6 2 1.00000000 128.19999695 372.25976944 -403.45024109 -21.70932579 2 -2 0 
289 6 1 -1.00000000 129.10000610 368.87733459 -403.36557198 -20.52892303 2 -2 0 
290 6 1 -1.00000000 129.10000610 366.77664948 -406.67277908 -20.89614677 2 -2 0 
291 6 1 -1.00000000 129.10000610 363.31682587 -407.17784357 -19.57280731 2 -2 0 
292 6 2 1.00000000 128.19999695 361.36182404 -410.55766582 -18.73312187 2 -2 0 
293 6 1 -1.00000000 129.10000610 360.96790695 -412.94751751 -21.74495316 2 -2 0 
294 6 2 1.00000000 128.19999695 359.26892471 -415.32705879 -24.46208572 2 -2 0 
295 6 2 1.00000000 128.19999695 360.31545258 -416.69891262 -28.03991699 2 -2 0 
296 6 2 1.00000000 128.19999695 360.60951996 -420.31991673 -28.86628914 2 -2 0 
297 6 1 -1.00000000 129.10000610 359.77362823 -421.21363878 -32.70266342 2 -2 0 
298 6 2 1.00000000 128.19999695 360.68864059 -422.08086014 -36.29394531 2 -2 0 
299 6 1 -1.00000000 129.10000610 362.55545425 -423.38820267 -39.48258591 2 -2 0 
300 6 2 1.00000000 128.19999695 365.91753769 -425.72034359 -40.04198456 2 -2 0 
301 7 2 1.00000000 128.19999695 -123.50080109 -13.72190189 -934.44907379 -1 0 -5 
302 7 1 -1.00000000 129.10000610 -122.92246246 -9.72229481 -934.99526978 -1 0 -5 
303 7 2 1.00000000 128.19999695 -125.12518311 -6.65918493 -934.25936890 -1 0 -5 
304 7 2 1.00000000 128.19999695 -125.08206177 -4.41187429 -931.22611237 -1 0 -4 
305 7 2 1.00000000 128.19999695 -124.70793152 -2.07987547 -928.22861481 -1 0 -4 
306 7 1 -1.00000000 129.10000610 -124.14326477 -1.69898009 -924.60318756 -1 0 -4 
307 7 2 1.00000000 128.19999695 -126.48119354 -4.48552275 -922.27957153 -1 0 -4 
308 7 1 -1.00000000 129.10000610 -127.00616455 -8.12940598 -922.57679749 -1 0 -4 
309 7 1 -1.00000000 129.10000610 -124.35260010 -9.35097408 -924.85652161 -1 0 -4 
310 7 1 -1.00000000 129.10000610 -123.82395935 -12.17000771 -927.36598969 -1 0 -4 
311 7 2 1.00000000 128.19999695 -122.78778839 -15.20186806 -925.42341614 -1 0 -4 
312 7 1 -1.00000000 129.10000610 -119.85524750 -17.32670212 -924.85881042 -1 0 -4 
313 7 1 -1.00000000 129.10000610 -117.86127472 -20.21791649 -926.63031769 -1 0 -4 
314 7 1 -1.00000000 129.10000610 -114.41606903 -21.41089821 -926.66676331 -1 0 -4 
315 7 2 1.00000000 128.19999695 -111.79141235 -21.47271919 -929.12204742 -1 0 -4 
316 7 2 1.00000000 128.19999695 -108.23633575 -23.15832901 -928.42013550 -1 0 -4 
317 7 1 -1.00000000 129.10000610 -105.46022797 -20.10912704 -928.47039795 -1 0 -4 
318 7 1 -1.00000000 129.10000610 -104.61081696 -18.80657196 -925.19580841 -1 0 -4 
319 7 2 1.00000000 128.19999695 -104.61260986 -22.54321098 -923.13546753 -1 0 -4 
320 7 1 -1.00000000 129.10000610 -108.07807922 -23.17927551 -921.59743500 -1 0 -4 
321 7 1 -1.00000000 129.10000610 -108.97437286 -23.45758629 -917.92355347 -1 0 -4 
322 7 1 -1.00000000 129.10000610 -112.44560242 -25.25344467 -917.54351807 -1 0 -4 
323 7 2 1.00000000 128.19999695 -114.57396698 -26.30076981 -920.64853668 -1 0 -4 
324 7 1 -1.00000000 129.10000610 -116.10540771 -29.75704193 -921.61436462 -1 0 -4 
325 7 1 -1.00000000 129.10000610 -119.41699219 -30.52180672 -922.96432495 -1 0 -4 
326 7 2 1.00000000 128.19999695 -122.00125122 -32.59782028 -921.06353760 -1 0 -4 
327 7 2 1.00000000 128.19999695 -122.75342560 -35.86000061 -922.80569458 -1 0 -4 
328 7 2 1.00000000 128.19999695 -120.70462036 -37.09024048 -925.50738525 -1 0 -4 
329 7 2 1.00000000 128.19999695 -118.78285217 -39.10032654 -928.25624847 -1 0 -4 
330 7 2 1.00000000 128.19999695 -119.27809143 -42.52643204 -930.09075165 -1 0 -4 
331 7 1 -1.00000000 129.10000610 -122.98389435 -43.08020782 -929.38738251 -1 0 -4 
332 7 1 -1.00000000 129.10000610 -125.51900482 -42.11696243 -926.49111938 -1 0 -4 
333 7 1 -1.00000000 129.10000610 -126.43791199 -41.03414536 -922.67756653 -1 0 -4 
334 7 2 1.00000000 128.19999695 -129.59688568 -41.77430725 -921.32792664 -1 0 -4 
335 7 2 1.00000000 128.19999695 -132.31214905 -43.54033279 -923.45336914 -1 0 -4 
336 7 2 1.00000000 128.19999695 -135.51101685 -43.07961655 -925.66054535 -1 0 -4 
337 7 1 -1.00000000 129.10000610 -139.90598297 -42.68104553 -925.24791718 -1 0 -4 
338 7 2 1.00000000 128.19999695 -143.34309387 -43.51887512 -925.45391846 -1 0 -4 
339 7 1 -1.00000000 129.10000610 -146.97589111 -42.53781128 -926.51267242 -1 0 -4 
340 7 1 -1.00000000 129.10000610 -149.99804688 -42.89837265 -928.19168091 -1 0 -4 
341 7 1 -1.00000000 129.10000610 -151.77942276 -45.51820374 -930.36078644 -1 0 -4 
342 7 2 1.00000000 128.19999695 -150.84090042 -44.47470093 -933.88555908 -1 0 -5 
343 7 1 -1.00000000 129.10000610 -148.45151520 -47.18442154 -934.67194366 -1 0 -5 
344 7 2 1.00000000 128.19999695 -147.22372437 -49.60362244 -931.91578674 -1 0 -4 
345 7 2 1.00000000 128.19999695 -143.90016556 -50.86178589 -933.53677368 -1 0 -5 
346 7 2 1.00000000 128.19999695 -143.76245117 -54.18189240 -934.90349579 -1 0 -5 
347 7 1 -1.00000000 129.10000610 -142.97304535 -57.15791321 -937.43072510 -1 0 -5 
348 7 2 1.00000000 128.19999695 -143.79340744 -59.76999664 -940.06774139 -1 0 -5 
349 7 1 -1.00000000 129.10000610 -145.14339828 -59.26084518 -943.51605225 -1 0 -5 
350 7 2 1.00000000 128.19999695 -146.09246063 -57.05563736 -946.80242920 -1 0 -5 
351 8 2 1.00000000 128.19999695 70.50714874 -129.08789825 626.40821171 0 -1 3 
352 8 1 -1.00000000 129.10000610 72.93586731 -126.53108215 626.50370169 0 -1 3 
353 8 2 1.00000000 128.19999695 71.41801453 -123.13779449 626.90116310 0 -1 3 
354 8 2 1.00000000 128.19999695 73.39162445 -120.40518951 625.08663630 0 -1 3 
355 8 2 1.00000000 128.19999695 75.27446747 -116.90980530 625.03915071 0 -1 3 
356 8 1 -1.00000000 129.10000610 74.88759613 -115.83120728 621.54009342 0 -1 3 
357 8 2 1.00000000 128.19999695 72.19260406 -117.65118408 619.43951273 0 -1 3 
358 8 1 -1.00000000 129.10000610 72.56517792 -118.39270020 615.64398670 0 -1 3 
359 8 1 -1.00000000 129.10000610 71.49349976 -120.74120331 612.96752071 0 -1 3 
360 8 1 -1.00000000 129.10000610 71.82842255 -121.51844025 609.04162312 0 -1 3 
361 8 2 1.00000000 128.19999695 72.71068573 -123.93761444 606.11786556 0 -1 3 
362 8 1 -1.00000000 129.10000610 71.62879181 -127.51699066 605.60760498 0 -1 3 
363 8 1 -1.00000000 129.10000610 67.74924469 -127.13966370 605.10851669 0 -1 3 
364 8 1 -1.00000000 129.10000610 64.29151154 -125.88445282 604.77802467 0 -1 3 
365 8 2 1.00000000 128.19999695 64.31959534 -124.51853180 601.35100555 0 -1 3 
366 8 2 1.00000000 128.19999695 63.38560867 -120.79206848 600.92482758 0 -1 3 
367 8 1 -1.00000000 129.10000610 65.49900055 -119.55788422 603.54066849 0 -1 3 
368 8 1 -1.00000000 129.10000610 65.35440063 -119.19992828 607.01427460 0 -1 3 
369 8 2 1.00000000 128.19999695 66.87773132 -115.68757629 607.76490688 0 -1 3 
370 8 1 -1.00000000 129.10000610 67.41021729 -116.23535919 611.48173523 0 -1 3 