ITEM: TIMESTEP
43450000 
ITEM: NUMBER OF ATOMS 
25000 
ITEM: BOX BOUNDS pp pp pp 
-103.678017 103.678017 
-103.678017 103.678017 
-103.678017 103.678017 
ITEM: ATOMS id mol type q mass xu yu zu ix iy iz 
1 1 2 1.00000000 128.19999695 494.81991577 -172.97282791 -330.04124451 2 -1 -2 
2 1 1 -1.00000000 129.10000610 496.30928802 -175.44369888 -327.37776947 2 -1 -2 
3 1 2 1.00000000 128.19999695 493.43705750 -176.76630211 -324.96301270 2 -1 -2 
4 1 2 1.00000000 128.19999695 492.30327606 -177.07680130 -321.15596008 2 -1 -2 
5 1 2 1.00000000 128.19999695 491.69850159 -178.56114960 -317.39341736 2 -1 -2 
6 1 1 -1.00000000 129.10000610 487.96511078 -178.01004791 -316.60799408 2 -1 -2 
7 1 2 1.00000000 128.19999695 484.33511353 -178.82107735 -317.44248199 2 -1 -2 
8 1 1 -1.00000000 129.10000610 481.78736877 -181.24511909 -319.18509674 2 -1 -2 
9 1 1 -1.00000000 129.10000610 483.31219482 -184.34584808 -319.16104889 2 -1 -2 
10 1 1 -1.00000000 129.10000610 485.50773621 -186.84259796 -321.22400665 2 -1 -2 
11 1 2 1.00000000 128.19999695 488.07637787 -184.51301384 -322.56401825 2 -1 -2 
12 1 1 -1.00000000 129.10000610 490.00086212 -182.46983337 -324.90328979 2 -1 -2 
13 1 1 -1.00000000 129.10000610 488.11618805 -179.29978180 -326.20917511 2 -1 -2 
14 1 1 -1.00000000 129.10000610 487.79879761 -178.07308197 -329.62906647 2 -1 -2 
15 1 2 1.00000000 128.19999695 486.08290863 -174.57322693 -329.43730164 2 -1 -2 
16 1 2 1.00000000 128.19999695 484.66955566 -172.61607361 -332.31009674 2 -1 -2 
17 1 1 -1.00000000 129.10000610 484.59703064 -172.95478821 -336.02198029 2 -1 -2 
18 1 1 -1.00000000 129.10000610 486.90015411 -174.54036713 -338.61604309 2 -1 -2 
19 1 2 1.00000000 128.19999695 490.46083069 -173.04945755 -337.80613708 2 -1 -2 
20 1 1 -1.00000000 129.10000610 493.60498047 -170.83235168 -337.67383575 2 -1 -2 
21 1 1 -1.00000000 129.10000610 493.39559937 -166.93059540 -338.61141205 2 -1 -2 
22 1 1 -1.00000000 129.10000610 494.76201630 -163.54027557 -340.15570831 2 -1 -2 
23 1 2 1.00000000 128.19999695 498.40085602 -164.48793793 -340.77023315 2 -1 -2 
24 1 1 -1.00000000 129.10000610 501.58213806 -165.62359238 -339.22766876 2 -1 -2 
25 1 1 -1.00000000 129.10000610 503.59761047 -168.77215195 -337.97315979 2 -1 -2 
26 1 2 1.00000000 128.19999695 501.62700653 -171.85813904 -336.80374146 2 -1 -2 
27 1 2 1.00000000 128.19999695 502.98711395 -174.29256821 -334.43292999 2 -1 -2 
28 1 2 1.00000000 128.19999695 502.96580505 -174.39803696 -330.22063446 2 -1 -2 
29 1 2 1.00000000 128.19999695 503.48465729 -173.26824951 -326.57363129 2 -1 -2 
30 1 2 1.00000000 128.19999695 503.84442902 -175.92372322 -323.95260620 2 -1 -2 
31 1 1 -1.00000000 129.10000610 504.64888763 -178.78695679 -321.58547211 2 -1 -2 
32 1 1 -1.00000000 129.10000610 504.47289276 -179.37477303 -318.02194214 2 -1 -2 
33 1 1 -1.00000000 129.10000610 505.52349091 -180.71430588 -314.52634430 2 -1 -2 
34 1 2 1.00000000 128.19999695 504.23745728 -183.33117676 -312.43888092 2 -1 -2 
35 1 2 1.00000000 128.19999695 505.07671356 -183.57880783 -308.64693451 2 -1 -1 
36 1 2 1.00000000 128.19999695 504.20194244 -185.23642349 -305.43228912 2 -1 -1 
37 1 1 -1.00000000 129.10000610 506.86312103 -186.24444771 -302.94734192 2 -1 -1 
38 1 2 1.00000000 128.19999695 507.66362000 -188.80837631 -300.28578949 2 -1 -1 
39 1 1 -1.00000000 129.10000610 506.22612762 -189.51672935 -296.67015076 2 -1 -1 
40 1 1 -1.00000000 129.10000610 502.37146759 -190.28591728 -297.70681000 2 -1 -1 
41 1 1 -1.00000000 129.10000610 501.52213287 -193.63837433 -298.40947723 2 -1 -1 
42 1 2 1.00000000 128.19999695 503.33593750 -197.19133186 -299.09581757 2 -1 -1 
43 1 1 -1.00000000 129.10000610 501.04537964 -199.19867229 -301.56142426 2 -1 -1 
44 1 2 1.00000000 128.19999695 497.83479309 -198.16664219 -302.95246887 2 -1 -1 
45 1 2 1.00000000 128.19999695 494.10516357 -198.59335804 -302.95211029 2 -1 -1 
46 1 2 1.00000000 128.19999695 491.87911987 -196.67157745 -305.05541992 2 -1 -1 
47 1 1 -1.00000000 129.10000610 488.89635468 -195.77778053 -302.91665649 2 -1 -1 
48 1 2 1.00000000 128.19999695 487.62387085 -195.60130310 -299.07437134 2 -1 -1 
49 1 1 -1.00000000 129.10000610 485.73327637 -198.56349945 -297.97595978 2 -1 -1 
50 1 2 1.00000000 128.19999695 486.01893616 -202.28181314 -298.46351624 2 -1 -1 
51 2 2 1.00000000 128.19999695 501.90176392 431.62461090 -314.04773712 2 2 -2 
52 2 1 -1.00000000 129.10000610 503.93605804 432.68514824 -316.99423981 2 2 -2 
53 2 2 1.00000000 128.19999695 504.81684875 431.72732544 -320.28684998 2 2 -2 
54 2 2 1.00000000 128.19999695 508.62664795 433.41465569 -320.55650330 2 2 -2 
55 2 2 1.00000000 128.19999695 511.45893860 434.14135742 -318.13106537 2 2 -2 
56 2 1 -1.00000000 129.10000610 515.66355133 433.59411049 -318.05606842 2 2 -2 
57 2 2 1.00000000 128.19999695 518.95250702 432.89252663 -316.19416809 3 2 -2 
58 2 1 -1.00000000 129.10000610 520.85589600 430.94456100 -313.42106628 3 2 -2 
59 2 1 -1.00000000 129.10000610 521.76136780 427.24498940 -311.62110138 3 2 -2 
60 2 1 -1.00000000 129.10000610 521.95642090 423.45385170 -311.57617950 3 2 -2 
61 2 2 1.00000000 128.19999695 522.29045105 420.81744671 -314.47070312 3 2 -2 
62 2 1 -1.00000000 129.10000610 523.51468658 417.23648643 -313.98487854 3 2 -2 
63 2 1 -1.00000000 129.10000610 520.92356873 415.00852013 -315.34748840 3 2 -2 
64 2 1 -1.00000000 129.10000610 520.11486816 411.35191464 -314.63572693 3 2 -2 
65 2 2 1.00000000 128.19999695 516.17922211 411.20014048 -314.36135864 2 2 -2 
66 2 2 1.00000000 128.19999695 513.49011230 408.12700129 -313.99333954 2 2 -2 
67 2 1 -1.00000000 129.10000610 511.21853638 406.20371246 -311.59360504 2 2 -2 
68 2 1 -1.00000000 129.10000610 511.73057556 402.13355446 -311.52010345 2 2 -2 
69 2 2 1.00000000 128.19999695 512.94869995 401.68416977 -315.02019501 2 2 -2 
70 2 1 -1.00000000 129.10000610 514.13835907 398.35988426 -316.67637634 2 2 -2 
71 2 1 -1.00000000 129.10000610 516.81049347 395.83226013 -318.38132477 2 2 -2 
72 2 1 -1.00000000 129.10000610 516.37805176 395.51445770 -322.02938080 2 2 -2 
73 2 2 1.00000000 128.19999695 519.57203674 394.47033310 -323.69692230 3 2 -2 
74 2 1 -1.00000000 129.10000610 523.02378082 394.98119354 -323.01467133 3 2 -2 
75 2 1 -1.00000000 129.10000610 525.72550964 392.17157936 -323.74082947 3 2 -2 
76 2 2 1.00000000 128.19999695 524.54166412 388.79593277 -324.24263763 3 2 -2 
77 2 2 1.00000000 128.19999695 526.38867188 385.32892799 -325.22058105 3 2 -2 
78 2 2 1.00000000 128.19999695 525.75071716 381.66790390 -325.07653809 3 2 -2 
79 2 2 1.00000000 128.19999695 524.99578857 379.64283752 -321.68400574 3 2 -2 
80 2 2 1.00000000 128.19999695 524.51441956 376.12291718 -321.85589600 3 2 -2 
81 2 1 -1.00000000 129.10000610 523.56862640 374.31776810 -324.82123566 3 2 -2 
82 2 1 -1.00000000 129.10000610 524.76448059 375.35060120 -328.67313385 3 2 -2 
83 2 1 -1.00000000 129.10000610 522.19776917 376.16479492 -330.89379883 3 2 -2 
84 2 2 1.00000000 128.19999695 519.33783722 374.40656662 -332.59458923 3 2 -2 
85 2 2 1.00000000 128.19999695 516.86658478 377.19707489 -333.45432281 2 2 -2 
86 2 2 1.00000000 128.19999695 513.77278137 379.30001450 -334.30973053 2 2 -2 
87 2 1 -1.00000000 129.10000610 510.50657654 380.46770096 -332.95932770 2 2 -2 
88 2 2 1.00000000 128.19999695 507.60822296 380.20840836 -335.69063568 2 2 -2 
89 2 1 -1.00000000 129.10000610 505.37210083 377.41880798 -336.42367554 2 2 -2 
90 2 1 -1.00000000 129.10000610 501.88112640 376.71524811 -335.03872681 2 2 -2 
91 2 1 -1.00000000 129.10000610 499.71601868 374.24561310 -336.69947052 2 2 -2 
92 2 2 1.00000000 128.19999695 497.27841187 371.42681122 -336.93466949 2 2 -2 
93 2 1 -1.00000000 129.10000610 497.80040741 367.74403381 -335.75648499 2 2 -2 
94 2 2 1.00000000 128.19999695 494.89446259 365.97805405 -334.40464783 2 2 -2 
95 2 2 1.00000000 128.19999695 492.44314575 363.40065002 -335.18824768 2 2 -2 
96 2 2 1.00000000 128.19999695 489.19056702 361.17105103 -335.71783447 2 2 -2 
97 2 1 -1.00000000 129.10000610 486.44347382 362.86809921 -333.61511230 2 2 -2 
98 2 2 1.00000000 128.19999695 486.76334381 360.35314560 -330.41660309 2 2 -2 
99 2 1 -1.00000000 129.10000610 489.15779114 360.19648743 -326.93928528 2 2 -2 
100 2 2 1.00000000 128.19999695 491.06075287 362.25268173 -324.86923218 2 2 -2 
101 3 2 1.00000000 128.19999695 334.46338654 -57.47094345 61.68962479 2 0 0 
102 3 1 -1.00000000 129.10000610 335.91980743 -54.07572174 60.99504852 2 0 0 
103 3 2 1.00000000 128.19999695 338.48093414 -51.57526398 62.50391769 2 0 0 
104 3 2 1.00000000 128.19999695 342.13227081 -52.74736404 61.49428177 2 0 0 
105 3 2 1.00000000 128.19999695 343.31202698 -54.32857895 58.24705887 2 0 0 
106 3 1 -1.00000000 129.10000610 345.00423431 -56.72736359 56.02222443 2 0 0 
107 3 2 1.00000000 128.19999695 345.41668701 -60.43956375 55.42103195 2 0 0 
108 3 1 -1.00000000 129.10000610 346.11412811 -61.20544052 58.97864914 2 0 0 
109 3 1 -1.00000000 129.10000610 342.89237213 -62.83391571 59.95694733 2 0 0 
110 3 1 -1.00000000 129.10000610 340.77247620 -61.94989395 62.94588089 2 0 0 
111 3 2 1.00000000 128.19999695 337.94481659 -63.24391937 64.54832458 2 0 0 
112 3 1 -1.00000000 129.10000610 335.98334503 -66.20833588 65.66238403 2 0 0 
113 3 1 -1.00000000 129.10000610 333.76879120 -68.46179962 67.57587433 2 0 0 
114 3 1 -1.00000000 129.10000610 330.35373688 -69.40998077 65.45642853 2 0 0 
115 3 2 1.00000000 128.19999695 329.17701721 -68.80260468 61.80822754 2 0 0 
116 3 2 1.00000000 128.19999695 327.41161346 -66.23429871 59.54211426 2 0 0 
117 3 1 -1.00000000 129.10000610 326.14533234 -67.15521240 55.75380707 2 0 0 
118 3 1 -1.00000000 129.10000610 324.44702911 -70.75856781 55.57932663 2 0 0 
119 3 2 1.00000000 128.19999695 321.93894196 -71.79341888 57.89809799 2 0 0 
120 3 1 -1.00000000 129.10000610 320.93580627 -74.94696045 59.33303070 2 0 0 
121 3 1 -1.00000000 129.10000610 321.15252686 -78.42946625 56.66264725 2 0 0 
122 3 1 -1.00000000 129.10000610 324.57702637 -79.28890991 56.36183167 2 0 0 
123 3 2 1.00000000 128.19999695 328.35087585 -78.53450775 55.23364639 2 0 0 
124 3 1 -1.00000000 129.10000610 329.75656128 -75.97092438 52.86611938 2 0 0 
125 3 1 -1.00000000 129.10000610 332.33276367 -73.78290558 54.44057465 2 0 0 
126 3 2 1.00000000 128.19999695 331.70969391 -69.78449249 54.63591766 2 0 0 
127 3 2 1.00000000 128.19999695 333.66009521 -66.47520447 54.11618042 2 0 0 
128 3 2 1.00000000 128.19999695 337.28948975 -66.80145264 54.55390549 2 0 0 
129 3 2 1.00000000 128.19999695 340.54946136 -68.92829895 54.70865250 2 0 0 
130 3 2 1.00000000 128.19999695 343.06842041 -70.67024231 52.79376984 2 0 0 
131 3 1 -1.00000000 129.10000610 344.44020844 -74.49568176 52.34863281 2 0 0 
132 3 1 -1.00000000 129.10000610 346.76012421 -75.51840973 54.33037186 2 0 0 
133 3 1 -1.00000000 129.10000610 348.56598663 -78.52021027 55.53076553 2 0 0 
134 3 2 1.00000000 128.19999695 350.39234924 -80.12873077 52.34612656 2 0 0 
135 3 2 1.00000000 128.19999695 349.42173004 -79.71497345 48.37818527 2 0 0 
136 3 2 1.00000000 128.19999695 351.07222748 -81.28174591 45.39918518 2 0 0 
137 3 1 -1.00000000 129.10000610 353.15041351 -81.33238983 42.04282761 2 0 0 
138 3 2 1.00000000 128.19999695 355.00699997 -83.61692047 40.13306427 2 0 0 
139 3 1 -1.00000000 129.10000610 356.17308426 -85.05992889 36.81209183 2 0 0 
140 3 1 -1.00000000 129.10000610 359.77164078 -84.57854462 36.83738327 2 0 0 
141 3 1 -1.00000000 129.10000610 363.17287827 -84.65445709 36.20864868 2 0 0 
142 3 2 1.00000000 128.19999695 364.87556076 -82.61513519 38.82067871 2 0 0 
143 3 1 -1.00000000 129.10000610 368.47059250 -82.92221832 39.37092590 2 0 0 
144 3 2 1.00000000 128.19999695 369.12537384 -80.12614441 41.99412537 2 0 0 
145 3 2 1.00000000 128.19999695 371.03798676 -77.70169067 44.28658295 2 0 0 
146 3 2 1.00000000 128.19999695 373.73440552 -75.94133759 45.44267654 2 0 0 
147 3 1 -1.00000000 129.10000610 377.37528992 -75.06781006 45.14482880 2 0 0 
148 3 2 1.00000000 128.19999695 380.49304199 -74.53698730 43.55076218 2 0 0 
149 3 1 -1.00000000 129.10000610 383.17808723 -72.06556702 42.55542374 2 0 0 
150 3 2 1.00000000 128.19999695 386.03040886 -71.97502136 39.29554367 2 0 0 
151 4 2 1.00000000 128.19999695 -321.17681122 373.06053543 -17.93811226 -2 2 0 
152 4 1 -1.00000000 129.10000610 -317.50000763 372.59257507 -19.11767387 -2 2 0 
153 4 2 1.00000000 128.19999695 -314.32515717 374.35681152 -17.49204063 -2 2 0 
154 4 2 1.00000000 128.19999695 -315.59154510 374.07192612 -13.72268486 -2 2 0 
155 4 2 1.00000000 128.19999695 -316.31282043 371.58752823 -10.65260983 -2 2 0 
156 4 1 -1.00000000 129.10000610 -316.84597015 370.42639160 -6.85517073 -2 2 0 
157 4 2 1.00000000 128.19999695 -313.93328857 368.84217834 -4.66727924 -2 2 0 
158 4 1 -1.00000000 129.10000610 -311.99401855 370.70445251 -1.73714352 -2 2 0 
159 4 1 -1.00000000 129.10000610 -308.43867493 370.18144608 -2.05520201 -1 2 0 
160 4 1 -1.00000000 129.10000610 -306.10448456 368.62281036 -4.47978401 -1 2 0 
161 4 2 1.00000000 128.19999695 -304.81752777 368.79411316 -8.08628559 -1 2 0 
162 4 1 -1.00000000 129.10000610 -305.70660400 371.36592865 -10.59695148 -1 2 0 
163 4 1 -1.00000000 129.10000610 -305.91342926 375.03907776 -9.04665565 -1 2 0 
164 4 1 -1.00000000 129.10000610 -307.38201904 378.21703720 -10.24310398 -1 2 0 
165 4 2 1.00000000 128.19999695 -305.26703644 380.47649765 -12.68442917 -1 2 0 
166 4 2 1.00000000 128.19999695 -303.23936462 383.70445251 -12.59230137 -1 2 0 
167 4 1 -1.00000000 129.10000610 -299.91573334 382.18480301 -12.01386261 -1 2 0 
168 4 1 -1.00000000 129.10000610 -297.22924042 379.48943329 -11.14693356 -1 2 0 
169 4 2 1.00000000 128.19999695 -296.01021576 378.06480026 -14.58161545 -1 2 0 
170 4 1 -1.00000000 129.10000610 -292.76340485 376.70542145 -15.60349560 -1 2 0 
171 4 1 -1.00000000 129.10000610 -289.04158783 376.30412292 -14.44680595 -1 2 0 
172 4 1 -1.00000000 129.10000610 -287.99790192 376.18127060 -10.93182373 -1 2 0 
173 4 2 1.00000000 128.19999695 -286.97436523 379.68552399 -9.15540504 -1 2 0 
174 4 1 -1.00000000 129.10000610 -285.82315826 383.02392006 -7.30475426 -1 2 0 
175 4 1 -1.00000000 129.10000610 -288.97875214 383.67297173 -5.15151978 -1 2 0 
176 4 2 1.00000000 128.19999695 -291.95594025 384.25093460 -7.30604410 -1 2 0 
177 4 2 1.00000000 128.19999695 -294.59976196 385.07269478 -9.99393463 -1 2 0 
178 4 2 1.00000000 128.19999695 -297.43216705 387.51128578 -8.66812515 -1 2 0 
179 4 2 1.00000000 128.19999695 -298.59098816 390.36513901 -7.51159573 -1 2 0 
180 4 2 1.00000000 128.19999695 -299.24851990 393.91265488 -6.10122204 -1 2 0 
181 4 1 -1.00000000 129.10000610 -301.85755920 396.43926048 -4.31682634 -1 2 0 
182 4 1 -1.00000000 129.10000610 -301.97050476 396.03695869 -0.60851461 -1 2 0 
183 4 1 -1.00000000 129.10000610 -300.80691528 393.14571571 1.27787411 -1 2 0 
184 4 2 1.00000000 128.19999695 -298.23197174 390.89856148 2.23084855 -1 2 0 
185 4 2 1.00000000 128.19999695 -296.15637207 388.04881668 1.40627813 -1 2 0 
186 4 2 1.00000000 128.19999695 -293.99214172 387.00836372 -1.28868926 -1 2 0 
187 4 1 -1.00000000 129.10000610 -292.13840485 383.90629005 0.16026042 -1 2 0 
188 4 2 1.00000000 128.19999695 -292.14085388 382.53674698 3.79705906 -1 2 0 
189 4 1 -1.00000000 129.10000610 -295.18341827 382.16765594 5.87614965 -1 2 0 
190 4 1 -1.00000000 129.10000610 -296.04187775 383.79561234 9.05467701 -1 2 0 
191 4 1 -1.00000000 129.10000610 -297.17377472 386.92603683 11.16938305 -1 2 0 
192 4 2 1.00000000 128.19999695 -293.33108521 387.62846565 12.51075172 -1 2 0 
193 4 1 -1.00000000 129.10000610 -290.88082886 389.56658745 10.12583160 -1 2 0 
194 4 2 1.00000000 128.19999695 -287.46135712 389.34765625 7.91480112 -1 2 0 
195 4 2 1.00000000 128.19999695 -284.53400421 391.67764091 7.12943506 -1 2 0 
196 4 2 1.00000000 128.19999695 -280.82459259 391.10155487 8.46333885 -1 2 0 
197 4 1 -1.00000000 129.10000610 -280.50840759 387.57125282 9.47097492 -1 2 0 
198 4 2 1.00000000 128.19999695 -278.26715088 386.00456047 12.10075569 -1 2 0 
199 4 1 -1.00000000 129.10000610 -275.72293854 383.51187706 12.50705910 -1 2 0 
200 4 2 1.00000000 128.19999695 -271.92988586 383.46479225 11.38396931 -1 2 0 
201 5 2 1.00000000 128.19999695 -235.33732796 -242.31085587 -224.33337212 -1 -1 -1 
202 5 1 -1.00000000 129.10000610 -232.15873528 -242.64258957 -226.75338936 -1 -1 -1 
203 5 2 1.00000000 128.19999695 -232.09057045 -242.04347992 -230.53771400 -1 -1 -1 
204 5 2 1.00000000 128.19999695 -229.47577286 -240.77497101 -233.30874062 -1 -1 -1 
205 5 2 1.00000000 128.19999695 -230.62028503 -238.63575554 -236.54966164 -1 -1 -1 
206 5 1 -1.00000000 129.10000610 -233.25646782 -235.65682983 -236.72530365 -1 -1 -1 
207 5 2 1.00000000 128.19999695 -234.78585434 -235.52779007 -233.32024574 -1 -1 -1 
208 5 1 -1.00000000 129.10000610 -236.61428070 -238.76645088 -232.51368332 -1 -1 -1 
209 5 1 -1.00000000 129.10000610 -238.38015747 -242.19203568 -232.76362801 -1 -1 -1 
210 5 1 -1.00000000 129.10000610 -238.64394379 -245.67004776 -234.34136200 -1 -1 -1 
211 5 2 1.00000000 128.19999695 -238.90920258 -248.45620728 -237.31667709 -1 -1 -1 
212 5 1 -1.00000000 129.10000610 -235.65685272 -247.81849670 -239.37703323 -1 -1 -1 
213 5 1 -1.00000000 129.10000610 -234.67321014 -251.47429276 -240.07045746 -1 -1 -1 
214 5 1 -1.00000000 129.10000610 -231.76762390 -252.45348358 -237.72788048 -1 -1 -1 
215 5 2 1.00000000 128.19999695 -229.99219513 -249.08714676 -237.10844421 -1 -1 -1 
216 5 2 1.00000000 128.19999695 -227.55364037 -246.45934677 -236.35105324 -1 -1 -1 
217 5 1 -1.00000000 129.10000610 -224.51591492 -246.55622482 -234.33965492 -1 -1 -1 
218 5 1 -1.00000000 129.10000610 -222.22497082 -244.01808929 -232.65350342 -1 -1 -1 
219 5 2 1.00000000 128.19999695 -223.75662422 -241.21076965 -230.40830421 -1 -1 -1 
220 5 1 -1.00000000 129.10000610 -226.10527992 -239.40251541 -228.32121658 -1 -1 -1 
221 5 1 -1.00000000 129.10000610 -227.21918297 -237.90402603 -225.02529144 -1 -1 -1 
222 5 1 -1.00000000 129.10000610 -225.52693176 -234.59155846 -223.67750359 -1 -1 -1 
223 5 2 1.00000000 128.19999695 -223.71975708 -233.18723297 -226.54652977 -1 -1 -1 
224 5 1 -1.00000000 129.10000610 -220.70129299 -235.98068619 -227.00675774 -1 -1 -1 
225 5 1 -1.00000000 129.10000610 -217.73101044 -235.42202950 -224.75322914 -1 -1 -1 
226 5 2 1.00000000 128.19999695 -216.18771076 -232.26683998 -223.02689362 -1 -1 -1 
227 5 2 1.00000000 128.19999695 -215.21516752 -230.44965935 -220.24183369 -1 -1 -1 
228 5 2 1.00000000 128.19999695 -211.64985609 -229.79950714 -219.25188541 -1 -1 -1 
229 5 2 1.00000000 128.19999695 -209.39075255 -227.74944878 -221.74978447 -1 -1 -1 
230 5 2 1.00000000 128.19999695 -206.67467320 -225.26819420 -220.57298851 -1 -1 -1 
231 5 1 -1.00000000 129.10000610 -207.18816486 -221.97662830 -218.87373829 -1 -1 -1 
232 5 1 -1.00000000 129.10000610 -209.87749910 -220.53958035 -216.24361038 -1 -1 -1 
233 5 1 -1.00000000 129.10000610 -212.49639606 -220.26830482 -213.68650818 -1 -1 -1 
234 5 2 1.00000000 128.19999695 -213.98883009 -217.14988995 -212.27223158 -1 -1 -1 
235 5 2 1.00000000 128.19999695 -217.79310226 -215.88469505 -212.90048122 -1 -1 -1 
236 5 2 1.00000000 128.19999695 -218.01039886 -213.46809149 -209.84209037 -1 -1 -1 
237 5 1 -1.00000000 129.10000610 -220.89339256 -212.54519272 -207.45736992 -1 -1 -1 
238 5 2 1.00000000 128.19999695 -223.77289391 -214.69737816 -206.20237684 -1 -1 -1 
239 5 1 -1.00000000 129.10000610 -227.71652412 -216.49499416 -207.27630262 -1 -1 -1 
240 5 1 -1.00000000 129.10000610 -231.34239197 -217.52541351 -206.63801646 -1 -1 -1 
241 5 1 -1.00000000 129.10000610 -235.39138031 -217.69792843 -206.86920056 -1 -1 -1 
242 5 2 1.00000000 128.19999695 -236.44748497 -216.34895325 -203.55084801 -1 -1 -1 
243 5 1 -1.00000000 129.10000610 -240.06197357 -217.64952278 -202.27959490 -1 -1 -1 
244 5 2 1.00000000 128.19999695 -242.36357117 -217.21796322 -199.37769127 -1 -1 -1 
245 5 2 1.00000000 128.19999695 -244.26477432 -213.81622124 -198.64984989 -1 -1 -1 
246 5 2 1.00000000 128.19999695 -245.53651428 -210.35636783 -200.22677612 -1 -1 -1 
247 5 1 -1.00000000 129.10000610 -245.46667099 -206.59895414 -200.65786362 -1 -1 -1 
248 5 2 1.00000000 128.19999695 -243.47246552 -203.73942423 -199.61435604 -1 -1 -1 
249 5 1 -1.00000000 129.10000610 -240.66290665 -201.35048294 -198.88760471 -1 -1 -1 
250 5 2 1.00000000 128.19999695 -237.62288666 -198.97576237 -199.14761353 -1 -1 -1 
251 6 2 1.00000000 128.19999695 408.91700983 -464.77684021 -144.06713486 2 -2 -1 
252 6 1 -1.00000000 129.10000610 412.22463036 -465.46302795 -146.63591003 2 -2 -1 
253 6 2 1.00000000 128.19999695 411.52626944 -468.61332703 -148.46025848 2 -2 -1 
254 6 2 1.00000000 128.19999695 412.46714187 -472.47229385 -148.92815781 2 -2 -1 
255 6 2 1.00000000 128.19999695 411.95023203 -475.19732285 -146.48217773 2 -2 -1 
256 6 1 -1.00000000 129.10000610 408.19825935 -475.90023804 -145.99872208 2 -2 -1 
257 6 2 1.00000000 128.19999695 407.32002115 -479.47180939 -145.95984268 2 -2 -1 
258 6 1 -1.00000000 129.10000610 404.90580463 -482.10517883 -146.18746567 2 -2 -1 
259 6 1 -1.00000000 129.10000610 404.24545670 -485.62763214 -145.32579803 2 -2 -1 
260 6 1 -1.00000000 129.10000610 403.70789337 -488.59603882 -143.20449829 2 -2 -1 
261 6 2 1.00000000 128.19999695 403.22940826 -489.19306946 -139.55010223 2 -2 -1 
262 6 1 -1.00000000 129.10000610 401.90589333 -492.55657959 -138.48490906 2 -2 -1 
263 6 1 -1.00000000 129.10000610 398.76750755 -493.17849731 -136.64310455 2 -2 -1 
264 6 1 -1.00000000 129.10000610 398.47150230 -489.81742096 -133.94226074 2 -2 -1 
265 6 2 1.00000000 128.19999695 397.84535408 -490.44249725 -130.60673523 2 -2 -1 
266 6 2 1.00000000 128.19999695 396.81361580 -491.72310638 -127.05251312 2 -2 -1 
267 6 1 -1.00000000 129.10000610 399.06835461 -491.78176117 -123.72978210 2 -2 -1 
268 6 1 -1.00000000 129.10000610 398.74405956 -492.74376678 -120.20108795 2 -2 -1 
269 6 2 1.00000000 128.19999695 398.04305649 -496.48638916 -119.81591797 2 -2 -1 
270 6 1 -1.00000000 129.10000610 399.93972111 -499.59401703 -120.26026154 2 -2 -1 
271 6 1 -1.00000000 129.10000610 400.06007767 -503.35617065 -119.32922363 2 -2 -1 
272 6 1 -1.00000000 129.10000610 400.94338608 -505.66045380 -121.90535736 2 -2 -1 
273 6 2 1.00000000 128.19999695 401.85510921 -506.47731018 -125.25102234 2 -2 -1 
274 6 1 -1.00000000 129.10000610 399.43366241 -505.51759338 -127.63585663 2 -2 -1 
275 6 1 -1.00000000 129.10000610 396.01327515 -506.97537231 -128.63362885 2 -2 -1 
276 6 2 1.00000000 128.19999695 393.53002167 -508.81973267 -131.22982788 2 -2 -1 
277 6 2 1.00000000 128.19999695 392.87819672 -506.54414368 -134.67886353 2 -2 -1 
278 6 2 1.00000000 128.19999695 390.68543625 -508.05164337 -137.24917603 2 -2 -1 
279 6 2 1.00000000 128.19999695 390.14505768 -509.07434082 -141.22075653 2 -2 -1 
280 6 2 1.00000000 128.19999695 390.86772728 -506.40753937 -143.42813873 2 -2 -1 
281 6 1 -1.00000000 129.10000610 394.26689720 -505.64814758 -144.76297760 2 -2 -1 
282 6 1 -1.00000000 129.10000610 397.65098953 -505.42105103 -142.93468475 2 -2 -1 
283 6 1 -1.00000000 129.10000610 401.26739025 -503.08354187 -143.29529572 2 -2 -1 
284 6 2 1.00000000 128.19999695 404.86774921 -503.73040009 -144.91303253 2 -2 -1 
285 6 2 1.00000000 128.19999695 403.82668781 -504.80643463 -148.38140488 2 -2 -1 
286 6 2 1.00000000 128.19999695 403.60824966 -507.33011627 -151.10592270 2 -2 -1 
287 6 1 -1.00000000 129.10000610 401.28073502 -508.35946655 -153.55426788 2 -2 -1 
288 6 2 1.00000000 128.19999695 398.68456650 -509.49681091 -156.22354507 2 -2 -1 
289 6 1 -1.00000000 129.10000610 397.64727402 -509.08530426 -160.30648422 2 -2 -1 
290 6 1 -1.00000000 129.10000610 400.32743740 -507.95644379 -162.53717422 2 -2 -1 
291 6 1 -1.00000000 129.10000610 398.45248413 -505.76947784 -165.22230148 2 -2 -1 
292 6 2 1.00000000 128.19999695 401.15050411 -503.75806427 -166.66637421 2 -2 -1 
293 6 1 -1.00000000 129.10000610 403.83364868 -502.90418243 -169.65039825 2 -2 -1 
294 6 2 1.00000000 128.19999695 402.83161449 -502.51647949 -173.53121948 2 -2 -1 
295 6 2 1.00000000 128.19999695 400.08925343 -499.76969910 -172.82167435 2 -2 -1 
296 6 2 1.00000000 128.19999695 396.65455437 -499.20461273 -174.31484985 2 -2 -1 
297 6 1 -1.00000000 129.10000610 395.50622749 -496.09328461 -176.38566589 2 -2 -1 
298 6 2 1.00000000 128.19999695 394.70645523 -492.45991516 -176.07623100 2 -2 -1 
299 6 1 -1.00000000 129.10000610 391.55557442 -491.10498047 -174.05207443 2 -2 -1 
300 6 2 1.00000000 128.19999695 389.36386108 -488.42955017 -175.53101730 2 -2 -1 
301 7 2 1.00000000 128.19999695 1.85581946 14.44871330 -819.31936169 0 0 -4 
302 7 1 -1.00000000 129.10000610 -1.21661508 13.96980762 -820.98056412 0 0 -4 
303 7 2 1.00000000 128.19999695 -4.69803810 15.49781895 -820.68689060 0 0 -4 
304 7 2 1.00000000 128.19999695 -6.74541569 14.80837250 -823.94074726 0 0 -4 
305 7 2 1.00000000 128.19999695 -7.64012384 13.79659748 -827.63178396 0 0 -4 
306 7 1 -1.00000000 129.10000610 -5.55594397 14.59723377 -830.91785002 0 0 -4 
307 7 2 1.00000000 128.19999695 -7.21686459 17.46448326 -832.47263837 0 0 -4 
308 7 1 -1.00000000 129.10000610 -8.86249828 20.58590126 -830.94268787 0 0 -4 
309 7 1 -1.00000000 129.10000610 -12.25576591 20.73342133 -832.71983123 0 0 -4 
310 7 1 -1.00000000 129.10000610 -13.75734329 22.51933861 -835.57563829 0 0 -4 
311 7 2 1.00000000 128.19999695 -12.23335266 22.09040070 -838.89516068 0 0 -4 
312 7 1 -1.00000000 129.10000610 -9.16218090 21.63365936 -840.72427654 0 0 -4 
313 7 1 -1.00000000 129.10000610 -8.80839920 20.52267647 -844.13532829 0 0 -4 
314 7 1 -1.00000000 129.10000610 -5.68570709 17.85952187 -844.15083122 0 0 -4 
315 7 2 1.00000000 128.19999695 -2.39919400 15.87127972 -843.05332184 0 0 -4 
316 7 2 1.00000000 128.19999695 -1.24454355 13.52531624 -840.17363930 0 0 -4 
317 7 1 -1.00000000 129.10000610 -2.94482994 12.07123566 -837.14881372 0 0 -4 
318 7 1 -1.00000000 129.10000610 -4.10962629 9.67312241 -834.51280594 0 0 -4 
319 7 2 1.00000000 128.19999695 -4.19324636 8.53219414 -830.87390959 0 0 -4 
320 7 1 -1.00000000 129.10000610 -1.47792780 6.90052748 -829.23190826 0 0 -4 
321 7 1 -1.00000000 129.10000610 1.75696766 4.62551546 -828.32436645 0 0 -4 
322 7 1 -1.00000000 129.10000610 3.43995476 4.10747957 -824.67764282 0 0 -4 
323 7 2 1.00000000 128.19999695 7.12771559 3.07595754 -825.45978951 0 0 -4 
324 7 1 -1.00000000 129.10000610 9.74257374 0.27104846 -826.33476186 0 0 -4 
325 7 1 -1.00000000 129.10000610 11.87946224 2.36200690 -829.14671195 0 0 -4 
326 7 2 1.00000000 128.19999695 11.93140125 6.00924110 -829.50057136 0 0 -4 
327 7 2 1.00000000 128.19999695 15.33119106 7.55380201 -829.06443313 0 0 -4 
328 7 2 1.00000000 128.19999695 17.48692322 7.01526928 -832.15068507 0 0 -4 
329 7 2 1.00000000 128.19999695 17.67975616 4.32304096 -835.13907003 0 0 -4 
330 7 2 1.00000000 128.19999695 15.54807186 3.58682585 -838.48066711 0 0 -4 
331 7 1 -1.00000000 129.10000610 12.85988903 1.43745434 -838.03592205 0 0 -4 
332 7 1 -1.00000000 129.10000610 13.48587322 -0.77762949 -835.10018492 0 0 -4 
333 7 1 -1.00000000 129.10000610 16.69768333 -2.63156748 -835.90059996 0 0 -4 
334 7 2 1.00000000 128.19999695 17.63751602 -5.99624205 -834.32880163 0 0 -4 
335 7 2 1.00000000 128.19999695 19.69662857 -6.26948881 -830.91984951 0 0 -4 
336 7 2 1.00000000 128.19999695 20.55743408 -9.86512566 -829.81214198 0 0 -4 
337 7 1 -1.00000000 129.10000610 24.41910553 -9.81109047 -830.65118062 0 0 -4 
338 7 2 1.00000000 128.19999695 26.03731918 -6.25434685 -831.35914922 0 0 -4 
339 7 1 -1.00000000 129.10000610 28.19828796 -4.58784676 -828.67388254 0 0 -4 
340 7 1 -1.00000000 129.10000610 26.68831635 -6.51965046 -825.63581896 0 0 -4 
341 7 1 -1.00000000 129.10000610 29.44741249 -7.52320576 -823.25043678 0 0 -4 
342 7 2 1.00000000 128.19999695 31.98903084 -4.90356588 -822.35694790 0 0 -4 
343 7 1 -1.00000000 129.10000610 35.08186722 -3.64322281 -823.83711529 0 0 -4 
344 7 2 1.00000000 128.19999695 34.52008820 -2.70770764 -827.66424012 0 0 -4 
345 7 2 1.00000000 128.19999695 32.05724335 -0.02347454 -827.47933042 0 0 -4 
346 7 2 1.00000000 128.19999695 34.13902283 3.12120867 -828.23063326 0 0 -4 
347 7 1 -1.00000000 129.10000610 37.37483978 2.82880092 -826.35250330 0 0 -4 
348 7 2 1.00000000 128.19999695 39.28746033 1.89471078 -822.98004818 0 0 -4 
349 7 1 -1.00000000 129.10000610 42.58258820 3.98857379 -822.14985991 0 0 -4 
350 7 2 1.00000000 128.19999695 42.62771988 5.63914061 -825.62045431 0 0 -4 
351 8 2 1.00000000 128.19999695 45.42184067 -200.47548151 608.18890285 0 -1 3 
352 8 1 -1.00000000 129.10000610 44.36444855 -200.71533203 604.53594780 0 -1 3 
353 8 2 1.00000000 128.19999695 42.94528961 -197.74464417 602.50944710 0 -1 3 
354 8 2 1.00000000 128.19999695 39.39289093 -196.85334492 601.81489182 0 -1 3 
355 8 2 1.00000000 128.19999695 37.46755981 -196.41263676 598.98335838 0 -1 3 
356 8 1 -1.00000000 129.10000610 35.68428040 -199.76358843 598.32941055 0 -1 3 
357 8 2 1.00000000 128.19999695 38.34266663 -201.84533644 596.80741119 0 -1 3 
358 8 1 -1.00000000 129.10000610 41.98382950 -202.26460218 595.66539383 0 -1 3 
359 8 1 -1.00000000 129.10000610 42.90992355 -205.12477493 593.37553024 0 -1 3 
360 8 1 -1.00000000 129.10000610 40.00876236 -207.52439170 593.04216385 0 -1 3 
361 8 2 1.00000000 128.19999695 39.59228134 -210.40151620 595.84262276 0 -1 3 
362 8 1 -1.00000000 129.10000610 38.43365097 -211.21264362 599.27118874 0 -1 3 
363 8 1 -1.00000000 129.10000610 39.44860458 -210.36703539 602.94515610 0 -1 3 
364 8 1 -1.00000000 129.10000610 41.58233643 -213.01493835 604.95409966 0 -1 3 
365 8 2 1.00000000 128.19999695 40.30081177 -216.55050278 605.44511223 0 -1 3 
366 8 2 1.00000000 128.19999695 38.43442917 -216.61378956 608.51706028 0 -1 3 
367 8 1 -1.00000000 129.10000610 38.78698349 -215.90366173 612.63256836 0 -1 3 
368 8 1 -1.00000000 129.10000610 40.89642334 -213.31344604 613.92075539 0 -1 3 
369 8 2 1.00000000 128.19999695 41.50324249 -212.04332638 617.33310509 0 -1 3 
370 8 1 -1.00000000 129.10000610 42.51143646 -213.09702206 620.90998542 0 -1 3 