ITEM: TIMESTEP
42900000 
ITEM: NUMBER OF ATOMS 
25000 
ITEM: BOX BOUNDS pp pp pp 
-103.678017 103.678017 
-103.678017 103.678017 
-103.678017 103.678017 
ITEM: ATOMS id mol type q mass xu yu zu ix iy iz 
1 1 2 1.00000000 128.19999695 529.49529266 -183.28034592 -318.61741638 3 -1 -2 
2 1 1 -1.00000000 129.10000610 529.28858948 -181.61869812 -322.09246063 3 -1 -2 
3 1 2 1.00000000 128.19999695 532.15465546 -180.13446999 -324.21250153 3 -1 -2 
4 1 2 1.00000000 128.19999695 531.41295624 -176.53503227 -325.50466919 3 -1 -2 
5 1 2 1.00000000 128.19999695 534.33352661 -174.56169891 -326.39152527 3 -1 -2 
6 1 1 -1.00000000 129.10000610 535.79990387 -171.43799973 -328.47222900 3 -1 -2 
7 1 2 1.00000000 128.19999695 535.01159668 -169.28118134 -331.48976135 3 -1 -2 
8 1 1 -1.00000000 129.10000610 534.38817596 -165.76309204 -332.75185394 3 -1 -2 
9 1 1 -1.00000000 129.10000610 534.24008942 -161.90961838 -332.96271515 3 -1 -2 
10 1 1 -1.00000000 129.10000610 534.66089630 -158.92615891 -334.98451233 3 -1 -2 
11 1 2 1.00000000 128.19999695 534.73162079 -155.96399689 -337.50142670 3 -1 -2 
12 1 1 -1.00000000 129.10000610 534.19396973 -152.05174255 -337.86018372 3 -1 -2 
13 1 1 -1.00000000 129.10000610 533.00153351 -148.48897934 -338.54167175 3 -1 -2 
14 1 1 -1.00000000 129.10000610 529.14606476 -148.24185181 -336.75061798 3 -1 -2 
15 1 2 1.00000000 128.19999695 526.62340546 -147.77657318 -333.44426727 3 -1 -2 
16 1 2 1.00000000 128.19999695 527.18154144 -148.73067856 -329.88590240 3 -1 -2 
17 1 1 -1.00000000 129.10000610 523.94528961 -149.84183121 -328.21377563 3 -1 -2 
18 1 1 -1.00000000 129.10000610 520.44468689 -148.94924545 -329.71343994 3 -1 -2 
19 1 2 1.00000000 128.19999695 518.97470093 -145.78183365 -328.21560669 3 -1 -2 
20 1 1 -1.00000000 129.10000610 515.78627777 -145.44272995 -329.75827789 2 -1 -2 
21 1 1 -1.00000000 129.10000610 516.48641968 -142.93933105 -332.64193726 2 -1 -2 
22 1 1 -1.00000000 129.10000610 516.12797546 -139.39559937 -333.94792938 2 -1 -2 
23 1 2 1.00000000 128.19999695 515.68240356 -135.65179443 -332.94821930 2 -1 -2 
24 1 1 -1.00000000 129.10000610 517.28480530 -133.22547150 -335.09868622 2 -1 -2 
25 1 1 -1.00000000 129.10000610 517.59046936 -134.68386078 -338.93248749 2 -1 -2 
26 1 2 1.00000000 128.19999695 514.32849121 -134.90113068 -340.88722229 2 -1 -2 
27 1 2 1.00000000 128.19999695 510.90785980 -134.44380188 -339.85005188 2 -1 -2 
28 1 2 1.00000000 128.19999695 509.56239319 -130.66380310 -339.94151306 2 -1 -2 
29 1 2 1.00000000 128.19999695 506.97887421 -129.13840485 -338.01624298 2 -1 -2 
30 1 2 1.00000000 128.19999695 503.27941132 -130.21861267 -336.92518616 2 -1 -2 
31 1 1 -1.00000000 129.10000610 501.40628052 -133.07020569 -338.74671936 2 -1 -2 
32 1 1 -1.00000000 129.10000610 500.29193115 -133.54189301 -342.42458344 2 -1 -2 
33 1 1 -1.00000000 129.10000610 502.49076843 -130.69552612 -343.53858948 2 -1 -2 
34 1 2 1.00000000 128.19999695 503.84604645 -127.38310242 -342.56817627 2 -1 -2 
35 1 2 1.00000000 128.19999695 502.64292145 -124.36696625 -344.69555664 2 -1 -2 
36 1 2 1.00000000 128.19999695 502.78142548 -124.63360596 -348.61003876 2 -1 -2 
37 1 1 -1.00000000 129.10000610 499.73767853 -125.48933411 -350.82276154 2 -1 -2 
38 1 2 1.00000000 128.19999695 496.38885498 -123.89555359 -351.54491425 2 -1 -2 
39 1 1 -1.00000000 129.10000610 495.57021332 -120.08506012 -351.93213654 2 -1 -2 
40 1 1 -1.00000000 129.10000610 494.87856293 -118.02246857 -348.34572601 2 -1 -2 
41 1 1 -1.00000000 129.10000610 498.22858429 -118.77366638 -346.39486694 2 -1 -2 
42 1 2 1.00000000 128.19999695 498.28723145 -118.58797455 -342.27117920 2 -1 -2 
43 1 1 -1.00000000 129.10000610 494.39549255 -119.30640411 -341.93055725 2 -1 -2 
44 1 2 1.00000000 128.19999695 491.49789429 -121.57609558 -342.35061646 2 -1 -2 
45 1 2 1.00000000 128.19999695 488.18148804 -122.97520447 -342.85092163 2 -1 -2 
46 1 2 1.00000000 128.19999695 487.36180878 -126.26671600 -341.16388702 2 -1 -2 
47 1 1 -1.00000000 129.10000610 485.22180176 -129.18858337 -342.79177094 2 -1 -2 
48 1 2 1.00000000 128.19999695 482.62685394 -129.65834045 -345.93287659 2 -1 -2 
49 1 1 -1.00000000 129.10000610 481.81118774 -133.52518463 -345.58882904 2 -1 -2 
50 1 2 1.00000000 128.19999695 484.05644226 -136.58684540 -344.73170471 2 -1 -2 
51 2 2 1.00000000 128.19999695 431.35468674 373.55012894 -327.53526306 2 2 -2 
52 2 1 -1.00000000 129.10000610 433.39903259 376.30161667 -329.27835083 2 2 -2 
53 2 2 1.00000000 128.19999695 436.13199806 377.44843292 -331.76420593 2 2 -2 
54 2 2 1.00000000 128.19999695 438.01702499 376.96240616 -335.13736725 2 2 -2 
55 2 2 1.00000000 128.19999695 440.74102020 377.81005478 -337.51553345 2 2 -2 
56 2 1 -1.00000000 129.10000610 441.81296539 381.04467010 -337.20303345 2 2 -2 
57 2 2 1.00000000 128.19999695 443.98348236 383.67847061 -334.99317932 2 2 -2 
58 2 1 -1.00000000 129.10000610 443.02052879 387.13625145 -335.41780090 2 2 -2 
59 2 1 -1.00000000 129.10000610 441.65543556 389.68214417 -337.77674103 2 2 -2 
60 2 1 -1.00000000 129.10000610 442.42306328 391.61006927 -340.98152161 2 2 -2 
61 2 2 1.00000000 128.19999695 441.01600266 389.65974998 -343.94425201 2 2 -2 
62 2 1 -1.00000000 129.10000610 440.43816376 385.99831390 -343.85188293 2 2 -2 
63 2 1 -1.00000000 129.10000610 441.18994331 383.50369453 -346.68837738 2 2 -2 
64 2 1 -1.00000000 129.10000610 444.78316116 382.62717056 -346.76181030 2 2 -2 
65 2 2 1.00000000 128.19999695 448.48135757 381.29204559 -346.29501343 2 2 -2 
66 2 2 1.00000000 128.19999695 449.39281082 377.68330002 -345.74032593 2 2 -2 
67 2 1 -1.00000000 129.10000610 446.98838806 375.58609009 -347.53972626 2 2 -2 
68 2 1 -1.00000000 129.10000610 443.51674080 375.76642227 -345.94564056 2 2 -2 
69 2 2 1.00000000 128.19999695 440.93244934 373.31219864 -346.52935028 2 2 -2 
70 2 1 -1.00000000 129.10000610 437.10524559 372.83704758 -346.25437927 2 2 -2 
71 2 1 -1.00000000 129.10000610 434.22203636 375.00400543 -344.61463165 2 2 -2 
72 2 1 -1.00000000 129.10000610 434.32249641 377.55128479 -341.52696991 2 2 -2 
73 2 2 1.00000000 128.19999695 432.48954582 380.18807220 -339.80295563 2 2 -2 
74 2 1 -1.00000000 129.10000610 430.60560417 382.90390015 -341.56916046 2 2 -2 
75 2 1 -1.00000000 129.10000610 428.90087223 384.43488312 -344.71739197 2 2 -2 
76 2 2 1.00000000 128.19999695 426.56544971 387.58860016 -343.65782166 2 2 -2 
77 2 2 1.00000000 128.19999695 425.03971767 390.26846504 -341.08763123 2 2 -2 
78 2 2 1.00000000 128.19999695 423.15603447 393.32948685 -340.11159515 2 2 -2 
79 2 2 1.00000000 128.19999695 424.99274445 396.32364655 -339.68971252 2 2 -2 
80 2 2 1.00000000 128.19999695 426.95721531 399.52404308 -339.42782593 2 2 -2 
81 2 1 -1.00000000 129.10000610 429.07312679 402.66770458 -337.93856049 2 2 -2 
82 2 1 -1.00000000 129.10000610 429.27655983 401.41595268 -334.35791016 2 2 -2 
83 2 1 -1.00000000 129.10000610 433.16559601 402.25187683 -333.90746307 2 2 -2 
84 2 2 1.00000000 128.19999695 434.80450058 405.23987961 -332.11179352 2 2 -2 
85 2 2 1.00000000 128.19999695 431.47386932 407.38807392 -330.72397614 2 2 -2 
86 2 2 1.00000000 128.19999695 430.45993423 405.07252216 -327.86301422 2 2 -2 
87 2 1 -1.00000000 129.10000610 428.57844925 403.45848370 -325.21895599 2 2 -2 
88 2 2 1.00000000 128.19999695 426.36540127 400.72325611 -323.48484039 2 2 -2 
89 2 1 -1.00000000 129.10000610 422.52793360 400.19023418 -324.56692505 2 2 -2 
90 2 1 -1.00000000 129.10000610 421.77521372 398.19356918 -327.74273682 2 2 -2 
91 2 1 -1.00000000 129.10000610 418.39291286 397.53055573 -328.41969299 2 2 -2 
92 2 2 1.00000000 128.19999695 416.29489553 400.26576900 -329.73800659 2 2 -2 
93 2 1 -1.00000000 129.10000610 418.63404560 403.39981365 -329.93400574 2 2 -2 
94 2 2 1.00000000 128.19999695 421.77234697 405.89112663 -329.95386505 2 2 -2 
95 2 2 1.00000000 128.19999695 421.26931667 407.90982962 -326.55632019 2 2 -2 
96 2 2 1.00000000 128.19999695 425.03825951 409.18636227 -325.54964447 2 2 -2 
97 2 1 -1.00000000 129.10000610 427.31098557 410.55305576 -323.21641541 2 2 -2 
98 2 2 1.00000000 128.19999695 429.53864288 413.71518433 -323.48734283 2 2 -2 
99 2 1 -1.00000000 129.10000610 431.88024902 416.00529122 -325.30323792 2 2 -2 
100 2 2 1.00000000 128.19999695 430.17979908 419.53340816 -326.13758087 2 2 -2 
101 3 2 1.00000000 128.19999695 353.63818741 -106.14583588 101.73029327 2 -1 0 
102 3 1 -1.00000000 129.10000610 354.78948593 -105.96492004 105.30771637 2 -1 1 
103 3 2 1.00000000 128.19999695 358.70655441 -107.37429047 105.46434021 2 -1 1 
104 3 2 1.00000000 128.19999695 360.89069366 -110.49161530 106.26687622 2 -1 1 
105 3 2 1.00000000 128.19999695 364.39304352 -111.44631958 106.82875061 2 -1 1 
106 3 1 -1.00000000 129.10000610 368.08065033 -113.47846985 107.03993988 2 -1 1 
107 3 2 1.00000000 128.19999695 368.80867004 -116.05484772 110.05622864 2 -1 1 
108 3 1 -1.00000000 129.10000610 368.18173218 -119.74859619 110.78286743 2 -1 1 
109 3 1 -1.00000000 129.10000610 371.00907516 -121.43775177 112.67936707 2 -1 1 
110 3 1 -1.00000000 129.10000610 371.64630127 -125.20094299 113.77593231 2 -1 1 
111 3 2 1.00000000 128.19999695 373.21015167 -128.30320740 112.29167175 2 -1 1 
112 3 1 -1.00000000 129.10000610 375.40922928 -130.53059387 114.22199249 2 -1 1 
113 3 1 -1.00000000 129.10000610 377.02701950 -133.96379089 114.33490753 2 -1 1 
114 3 1 -1.00000000 129.10000610 377.52943802 -137.37297821 116.19001770 2 -1 1 
115 3 2 1.00000000 128.19999695 373.94399261 -138.77617645 115.74889374 2 -1 1 
116 3 2 1.00000000 128.19999695 372.95007324 -139.33915710 119.39916992 2 -1 1 
117 3 1 -1.00000000 129.10000610 370.56283951 -137.90554047 121.73397064 2 -1 1 
118 3 1 -1.00000000 129.10000610 366.78541946 -136.88648987 121.55194092 2 -1 1 
119 3 2 1.00000000 128.19999695 363.60585022 -134.89652252 121.64230347 2 -1 1 
120 3 1 -1.00000000 129.10000610 363.44387054 -132.42739868 118.91249847 2 -1 1 
121 3 1 -1.00000000 129.10000610 362.33810043 -130.81882477 115.62446594 2 -1 1 
122 3 1 -1.00000000 129.10000610 360.90587997 -128.15948486 113.48709869 2 -1 1 
123 3 2 1.00000000 128.19999695 357.54185486 -127.93528748 111.75289154 2 -1 1 
124 3 1 -1.00000000 129.10000610 354.99759293 -129.31614685 109.19622803 2 -1 1 
125 3 1 -1.00000000 129.10000610 355.54991913 -131.01522827 105.74336243 2 -1 1 
126 3 2 1.00000000 128.19999695 359.03139496 -129.74566650 104.57441711 2 -1 1 
127 3 2 1.00000000 128.19999695 360.63187790 -126.46929932 103.02714539 2 -1 0 
128 3 2 1.00000000 128.19999695 359.68594742 -122.92879486 102.34941101 2 -1 0 
129 3 2 1.00000000 128.19999695 359.50388718 -119.60554504 104.08672333 2 -1 1 
130 3 2 1.00000000 128.19999695 356.85250854 -117.63962555 105.81182861 2 -1 1 
131 3 1 -1.00000000 129.10000610 355.43576050 -119.98324585 108.45357513 2 -1 1 
132 3 1 -1.00000000 129.10000610 353.20912170 -122.97618866 108.87538910 2 -1 1 
133 3 1 -1.00000000 129.10000610 349.37315369 -123.10984802 109.16004944 2 -1 1 
134 3 2 1.00000000 128.19999695 345.41461182 -122.09980011 108.80720520 2 -1 1 
135 3 2 1.00000000 128.19999695 343.19976807 -122.84410858 105.82483673 2 -1 1 
136 3 2 1.00000000 128.19999695 342.52764893 -124.91588593 102.60386658 2 -1 0 
137 3 1 -1.00000000 129.10000610 345.53369904 -126.39779663 100.54977417 2 -1 0 
138 3 2 1.00000000 128.19999695 348.03905487 -128.77349854 102.36111450 2 -1 0 
139 3 1 -1.00000000 129.10000610 351.89461899 -128.23612213 100.79972839 2 -1 0 
140 3 1 -1.00000000 129.10000610 354.90560150 -130.35636902 99.61727905 2 -1 0 
141 3 1 -1.00000000 129.10000610 354.66362000 -129.93167877 95.99716949 2 -1 0 
142 3 2 1.00000000 128.19999695 350.90163422 -130.70615387 94.51842499 2 -1 0 
143 3 1 -1.00000000 129.10000610 350.08041382 -132.04776001 91.10045624 2 -1 0 
144 3 2 1.00000000 128.19999695 351.69277954 -130.70323944 88.02188873 2 -1 0 
145 3 2 1.00000000 128.19999695 348.40687561 -130.47344971 85.84289551 2 -1 0 
146 3 2 1.00000000 128.19999695 347.30306244 -133.93766785 84.76027679 2 -1 0 
147 3 1 -1.00000000 129.10000610 348.34738159 -137.37603760 85.79232788 2 -1 0 
148 3 2 1.00000000 128.19999695 351.31127930 -138.66584778 83.88501740 2 -1 0 
149 3 1 -1.00000000 129.10000610 352.37282562 -139.97447205 80.64472198 2 -1 0 
150 3 2 1.00000000 128.19999695 352.55103302 -143.36856842 79.33634186 2 -1 0 
151 4 2 1.00000000 128.19999695 -332.28321838 419.57077217 46.98615646 -2 2 0 
152 4 1 -1.00000000 129.10000610 -335.20866394 417.44224167 48.66853333 -2 2 0 
153 4 2 1.00000000 128.19999695 -337.31841278 414.61321790 50.36950684 -2 2 0 
154 4 2 1.00000000 128.19999695 -335.90275574 411.85344648 52.17255402 -2 2 0 
155 4 2 1.00000000 128.19999695 -333.28946686 409.06250143 52.43134689 -2 2 0 
156 4 1 -1.00000000 129.10000610 -329.45748138 409.33236504 53.02038193 -2 2 0 
157 4 2 1.00000000 128.19999695 -328.87402344 411.84864998 56.37291718 -2 2 0 
158 4 1 -1.00000000 129.10000610 -328.40047455 415.68377101 57.16030884 -2 2 0 
159 4 1 -1.00000000 129.10000610 -328.03241730 419.62305593 58.23359299 -2 2 0 
160 4 1 -1.00000000 129.10000610 -325.59754944 419.36265326 61.05623245 -2 2 0 
161 4 2 1.00000000 128.19999695 -323.44388580 419.94411087 64.05919647 -2 2 0 
162 4 1 -1.00000000 129.10000610 -320.54741669 417.72600818 64.87574005 -2 2 0 
163 4 1 -1.00000000 129.10000610 -321.36241913 414.05394089 65.98406982 -2 2 0 
164 4 1 -1.00000000 129.10000610 -319.86079407 410.92014670 68.07518768 -2 2 0 
165 4 2 1.00000000 128.19999695 -320.47039795 408.63555193 71.03181458 -2 2 0 
166 4 2 1.00000000 128.19999695 -318.72733307 408.74576950 74.74204254 -2 2 0 
167 4 1 -1.00000000 129.10000610 -319.00251007 409.47425938 78.74443817 -2 2 0 
168 4 1 -1.00000000 129.10000610 -320.18826294 412.57767367 80.48406982 -2 2 0 
169 4 2 1.00000000 128.19999695 -318.18292999 414.92653316 78.25322723 -2 2 0 
170 4 1 -1.00000000 129.10000610 -315.93885040 413.87857902 75.73566437 -2 2 0 
171 4 1 -1.00000000 129.10000610 -312.62798309 415.33557767 74.24220276 -2 2 0 
172 4 1 -1.00000000 129.10000610 -309.69209290 417.54172158 74.43754578 -1 2 0 
173 4 2 1.00000000 128.19999695 -309.42588806 420.24924564 71.84581757 -1 2 0 
174 4 1 -1.00000000 129.10000610 -313.23844910 421.26561975 71.96714020 -2 2 0 
175 4 1 -1.00000000 129.10000610 -316.36786652 420.07899141 70.32742310 -2 2 0 
176 4 2 1.00000000 128.19999695 -319.91974640 421.43055487 70.34035492 -2 2 0 
177 4 2 1.00000000 128.19999695 -323.43776703 423.55513477 69.68724823 -2 2 0 
178 4 2 1.00000000 128.19999695 -324.18621826 424.43576527 73.40380859 -2 2 0 
179 4 2 1.00000000 128.19999695 -326.84336090 426.74696827 74.55847931 -2 2 0 
180 4 2 1.00000000 128.19999695 -329.95437622 428.04212379 76.43389130 -2 2 0 
181 4 1 -1.00000000 129.10000610 -333.10697174 426.48645878 74.87219238 -2 2 0 
182 4 1 -1.00000000 129.10000610 -335.65456390 424.35423660 76.69435120 -2 2 0 
183 4 1 -1.00000000 129.10000610 -339.46248627 423.34028053 76.37455750 -2 2 0 
184 4 2 1.00000000 128.19999695 -341.21627045 426.55440521 76.90016937 -2 2 0 
185 4 2 1.00000000 128.19999695 -340.15023041 429.88183689 76.43634033 -2 2 0 
186 4 2 1.00000000 128.19999695 -337.56015015 431.61098289 78.78575897 -2 2 0 
187 4 1 -1.00000000 129.10000610 -336.04462433 433.83133316 81.19971466 -2 2 0 
188 4 2 1.00000000 128.19999695 -338.45116425 435.85257149 83.30885315 -2 2 0 
189 4 1 -1.00000000 129.10000610 -341.66795349 434.81113052 81.58760071 -2 2 0 
190 4 1 -1.00000000 129.10000610 -342.60343170 430.98618889 81.42567444 -2 2 0 
191 4 1 -1.00000000 129.10000610 -342.24291229 428.34255028 84.44883728 -2 2 0 
192 4 2 1.00000000 128.19999695 -344.47039795 425.47336960 84.25378418 -2 2 0 
193 4 1 -1.00000000 129.10000610 -346.77043152 422.18418932 84.66014099 -2 2 0 
194 4 2 1.00000000 128.19999695 -345.79971313 418.92259312 82.68096161 -2 2 0 
195 4 2 1.00000000 128.19999695 -342.42592621 418.61041451 80.25518799 -2 2 0 
196 4 2 1.00000000 128.19999695 -339.60457611 417.04850936 77.92448425 -2 2 0 
197 4 1 -1.00000000 129.10000610 -335.92288208 417.82866788 76.97095490 -2 2 0 
198 4 2 1.00000000 128.19999695 -332.40728760 416.03987467 77.15585327 -2 2 0 
199 4 1 -1.00000000 129.10000610 -329.03430176 416.15595710 79.48759460 -2 2 0 
200 4 2 1.00000000 128.19999695 -325.80286407 416.81610227 78.95558929 -2 2 0 
201 5 2 1.00000000 128.19999695 -306.87577820 -288.08036041 -258.36417007 -1 -1 -1 
202 5 1 -1.00000000 129.10000610 -307.61884308 -290.72777557 -261.05765152 -1 -1 -1 
203 5 2 1.00000000 128.19999695 -305.81829834 -290.86537170 -264.86021423 -1 -1 -1 
204 5 2 1.00000000 128.19999695 -303.28881836 -288.54074097 -267.12865067 -1 -1 -1 
205 5 2 1.00000000 128.19999695 -300.23945618 -286.65358734 -267.49755478 -1 -1 -1 
206 5 1 -1.00000000 129.10000610 -296.68566895 -287.97289276 -266.86185074 -1 -1 -1 
207 5 2 1.00000000 128.19999695 -296.63384247 -291.67301941 -266.34785080 -1 -1 -1 
208 5 1 -1.00000000 129.10000610 -297.70565033 -294.65380859 -263.98853683 -1 -1 -1 
209 5 1 -1.00000000 129.10000610 -301.19126892 -294.42348480 -261.83469009 -1 -1 -1 
210 5 1 -1.00000000 129.10000610 -302.12766266 -297.63433838 -259.69273376 -1 -1 -1 
211 5 2 1.00000000 128.19999695 -299.88927460 -299.88359070 -261.68949127 -1 -1 -1 
212 5 1 -1.00000000 129.10000610 -299.75362396 -299.63132477 -265.70262146 -1 -1 -1 
213 5 1 -1.00000000 129.10000610 -297.54956055 -301.01648712 -268.38386154 -1 -1 -1 
214 5 1 -1.00000000 129.10000610 -298.37552643 -304.65998077 -269.43882370 -1 -1 -1 
215 5 2 1.00000000 128.19999695 -300.63349915 -304.68055725 -272.75522614 -1 -1 -1 
216 5 2 1.00000000 128.19999695 -303.48792267 -305.47319794 -274.95191193 -1 -1 -1 
217 5 1 -1.00000000 129.10000610 -304.61676025 -303.28311920 -277.83932495 -1 -1 -1 
218 5 1 -1.00000000 129.10000610 -302.43110657 -300.20025635 -278.76988220 -1 -1 -1 
219 5 2 1.00000000 128.19999695 -304.43453217 -297.23064423 -279.70495605 -1 -1 -1 
220 5 1 -1.00000000 129.10000610 -307.97697449 -296.46129608 -279.39526367 -1 -1 -1 
221 5 1 -1.00000000 129.10000610 -311.20072937 -294.57878113 -281.07916260 -2 -1 -1 
222 5 1 -1.00000000 129.10000610 -311.88372040 -290.57925415 -280.99099731 -2 -1 -1 
223 5 2 1.00000000 128.19999695 -312.29919434 -286.65203857 -279.88417053 -2 -1 -1 
224 5 1 -1.00000000 129.10000610 -312.10840607 -283.32828522 -281.50293732 -2 -1 -1 
225 5 1 -1.00000000 129.10000610 -310.72602844 -280.59151459 -283.33807373 -1 -1 -1 
226 5 2 1.00000000 128.19999695 -312.45124054 -278.60222626 -286.05073547 -2 -1 -1 
227 5 2 1.00000000 128.19999695 -312.69541931 -276.81036377 -289.97795105 -2 -1 -1 
228 5 2 1.00000000 128.19999695 -310.56661987 -275.30461121 -292.61344147 -1 -1 -1 
229 5 2 1.00000000 128.19999695 -307.25712585 -277.15551758 -293.10034180 -1 -1 -1 
230 5 2 1.00000000 128.19999695 -303.73600769 -277.98589325 -292.10475922 -1 -1 -1 
231 5 1 -1.00000000 129.10000610 -301.24279785 -276.59727478 -294.26368713 -1 -1 -1 
232 5 1 -1.00000000 129.10000610 -302.03518677 -272.79560089 -295.17137909 -1 -1 -1 
233 5 1 -1.00000000 129.10000610 -304.70492554 -273.02950287 -297.90818787 -1 -1 -1 
234 5 2 1.00000000 128.19999695 -305.80355072 -273.94869232 -301.54977417 -1 -1 -1 
235 5 2 1.00000000 128.19999695 -304.53125000 -277.42335510 -302.40320587 -1 -1 -1 
236 5 2 1.00000000 128.19999695 -304.67887878 -280.82596588 -301.02490234 -1 -1 -1 
237 5 1 -1.00000000 129.10000610 -302.77925873 -283.22317505 -298.88500977 -1 -1 -1 
238 5 2 1.00000000 128.19999695 -300.15969849 -284.52136993 -296.42875671 -1 -1 -1 
239 5 1 -1.00000000 129.10000610 -301.18641663 -283.44797516 -292.85265350 -1 -1 -1 
240 5 1 -1.00000000 129.10000610 -304.94557190 -283.89756012 -292.06835938 -1 -1 -1 
241 5 1 -1.00000000 129.10000610 -306.90370941 -283.95348358 -288.88290405 -1 -1 -1 
242 5 2 1.00000000 128.19999695 -304.86344147 -283.40170288 -285.41306305 -1 -1 -1 
243 5 1 -1.00000000 129.10000610 -302.89214325 -280.41538239 -286.68982697 -1 -1 -1 
244 5 2 1.00000000 128.19999695 -299.81908417 -278.65121460 -285.73958588 -1 -1 -1 
245 5 2 1.00000000 128.19999695 -297.37062073 -279.38478851 -282.99173737 -1 -1 -1 
246 5 2 1.00000000 128.19999695 -297.81522369 -278.57938385 -279.23402405 -1 -1 -1 
247 5 1 -1.00000000 129.10000610 -297.10986328 -279.92736053 -275.85433197 -1 -1 -1 
248 5 2 1.00000000 128.19999695 -294.77209473 -281.78921509 -273.02356720 -1 -1 -1 
249 5 1 -1.00000000 129.10000610 -293.01116943 -284.29071045 -270.45663071 -1 -1 -1 
250 5 2 1.00000000 128.19999695 -289.59197235 -284.25670624 -268.67616653 -1 -1 -1 
251 6 2 1.00000000 128.19999695 451.64120483 -411.45125961 -120.51670837 2 -2 -1 
252 6 1 -1.00000000 129.10000610 449.21564865 -414.10823679 -119.14171600 2 -2 -1 
253 6 2 1.00000000 128.19999695 447.34383392 -416.16905963 -121.52055359 2 -2 -1 
254 6 2 1.00000000 128.19999695 443.82572174 -416.11970448 -121.46046448 2 -2 -1 
255 6 2 1.00000000 128.19999695 442.13006401 -413.28000641 -123.11978912 2 -2 -1 
256 6 1 -1.00000000 129.10000610 439.50228500 -411.12257552 -120.95987701 2 -2 -1 
257 6 2 1.00000000 128.19999695 436.07421303 -411.63151336 -122.90815735 2 -2 -1 
258 6 1 -1.00000000 129.10000610 436.77040100 -411.01756215 -126.67192078 2 -2 -1 
259 6 1 -1.00000000 129.10000610 440.19078064 -411.28244638 -128.19820404 2 -2 -1 
260 6 1 -1.00000000 129.10000610 443.65915680 -410.22828245 -128.83690643 2 -2 -1 
261 6 2 1.00000000 128.19999695 447.33768463 -410.37614393 -127.68653107 2 -2 -1 
262 6 1 -1.00000000 129.10000610 450.20728683 -411.97915292 -129.34540558 2 -2 -1 
263 6 1 -1.00000000 129.10000610 454.18794250 -410.70944500 -129.34661865 2 -2 -1 
264 6 1 -1.00000000 129.10000610 457.42574310 -410.32197618 -127.47821808 2 -2 -1 
265 6 2 1.00000000 128.19999695 460.67150497 -412.26518321 -127.35491943 2 -2 -1 
266 6 2 1.00000000 128.19999695 459.72103500 -416.30481195 -126.87206268 2 -2 -1 
267 6 1 -1.00000000 129.10000610 460.83097076 -419.34155655 -128.66224670 2 -2 -1 
268 6 1 -1.00000000 129.10000610 462.28204346 -422.41652346 -126.86605072 2 -2 -1 
269 6 2 1.00000000 128.19999695 460.11027527 -423.04210663 -123.53717041 2 -2 -1 
270 6 1 -1.00000000 129.10000610 459.78717041 -420.59816790 -120.53984833 2 -2 -1 
271 6 1 -1.00000000 129.10000610 459.92766571 -420.35119057 -116.81355286 2 -2 -1 
272 6 1 -1.00000000 129.10000610 462.48472977 -422.89779758 -115.98710632 2 -2 -1 
273 6 2 1.00000000 128.19999695 461.00604630 -426.08480549 -117.75207520 2 -2 -1 
274 6 1 -1.00000000 129.10000610 459.08423996 -429.26955986 -118.43335724 2 -2 -1 
275 6 1 -1.00000000 129.10000610 458.13427353 -430.39636803 -121.86901093 2 -2 -1 
276 6 2 1.00000000 128.19999695 460.96182632 -430.89743233 -124.69631958 2 -2 -1 
277 6 2 1.00000000 128.19999695 460.10335922 -434.27558899 -125.80995941 2 -2 -1 
278 6 2 1.00000000 128.19999695 458.53451538 -436.75942612 -123.35971069 2 -2 -1 
279 6 2 1.00000000 128.19999695 457.32756042 -440.21627045 -122.44269562 2 -2 -1 
280 6 2 1.00000000 128.19999695 454.73381805 -442.60422707 -121.59451294 2 -2 -1 
281 6 1 -1.00000000 129.10000610 451.60005188 -441.81510353 -123.46644592 2 -2 -1 
282 6 1 -1.00000000 129.10000610 451.26385117 -438.49201775 -125.50265503 2 -2 -1 
283 6 1 -1.00000000 129.10000610 452.09360504 -434.73102760 -126.27170563 2 -2 -1 
284 6 2 1.00000000 128.19999695 450.80061340 -434.45146179 -129.84272003 2 -2 -1 
285 6 2 1.00000000 128.19999695 447.00434494 -433.69474030 -130.94973755 2 -2 -1 
286 6 2 1.00000000 128.19999695 443.86462784 -433.06373596 -128.85224915 2 -2 -1 
287 6 1 -1.00000000 129.10000610 444.36649513 -430.01466370 -126.74601746 2 -2 -1 
288 6 2 1.00000000 128.19999695 444.45774651 -428.69278049 -123.30150604 2 -2 -1 
289 6 1 -1.00000000 129.10000610 445.28990364 -424.95990658 -122.20500946 2 -2 -1 
290 6 1 -1.00000000 129.10000610 446.70561409 -424.14861965 -125.60099792 2 -2 -1 
291 6 1 -1.00000000 129.10000610 443.80325508 -421.64117002 -126.47230530 2 -2 -1 
292 6 2 1.00000000 128.19999695 440.65589714 -420.28717947 -128.37239838 2 -2 -1 
293 6 1 -1.00000000 129.10000610 441.63823891 -419.44165039 -132.03246307 2 -2 -1 
294 6 2 1.00000000 128.19999695 444.10133171 -420.02765131 -134.89108276 2 -2 -1 
295 6 2 1.00000000 128.19999695 447.21651840 -422.16083431 -135.26256561 2 -2 -1 
296 6 2 1.00000000 128.19999695 450.29141998 -423.51891708 -134.09209442 2 -2 -1 
297 6 1 -1.00000000 129.10000610 452.62608337 -423.62440777 -131.04255676 2 -2 -1 
298 6 2 1.00000000 128.19999695 452.22959518 -426.33236504 -128.27886200 2 -2 -1 
299 6 1 -1.00000000 129.10000610 453.25553894 -424.19441128 -125.20903778 2 -2 -1 
300 6 2 1.00000000 128.19999695 453.19008255 -422.23103189 -121.94842529 2 -2 -1 
301 7 2 1.00000000 128.19999695 -7.73035431 -12.36068058 -836.05671597 0 0 -4 
302 7 1 -1.00000000 129.10000610 -9.96708393 -15.02463341 -837.49194908 0 0 -4 
303 7 2 1.00000000 128.19999695 -10.53046131 -17.36534119 -840.37783337 0 0 -4 
304 7 2 1.00000000 128.19999695 -12.01224136 -20.00407600 -842.56487846 0 0 -4 
305 7 2 1.00000000 128.19999695 -10.18771648 -22.85259628 -841.74779034 0 0 -4 
306 7 1 -1.00000000 129.10000610 -10.47733498 -26.33125305 -843.18241310 0 0 -4 
307 7 2 1.00000000 128.19999695 -9.91588402 -29.75556183 -841.51181412 0 0 -4 
308 7 1 -1.00000000 129.10000610 -6.87326145 -31.07491302 -843.03514290 0 0 -4 
309 7 1 -1.00000000 129.10000610 -3.74421859 -29.87235260 -844.90339947 0 0 -4 
310 7 1 -1.00000000 129.10000610 -0.83444351 -31.73066711 -844.04201603 0 0 -4 
311 7 2 1.00000000 128.19999695 1.10918546 -35.38532257 -843.60026455 0 0 -4 
312 7 1 -1.00000000 129.10000610 -0.03902296 -38.87245941 -842.36836338 0 0 -4 
313 7 1 -1.00000000 129.10000610 -2.14658165 -41.14178467 -844.19878006 0 0 -4 
314 7 1 -1.00000000 129.10000610 -5.42719889 -42.76116943 -843.23587704 0 0 -4 
315 7 2 1.00000000 128.19999695 -8.71306801 -44.54705811 -844.42243767 0 0 -4 
316 7 2 1.00000000 128.19999695 -12.11419010 -45.83980179 -844.56508160 0 0 -4 
317 7 1 -1.00000000 129.10000610 -12.97443867 -48.80184555 -846.98993874 0 0 -4 
318 7 1 -1.00000000 129.10000610 -10.15788174 -47.92218018 -849.38047600 0 0 -4 
319 7 2 1.00000000 128.19999695 -11.84189034 -46.06198120 -851.97043800 0 0 -4 
320 7 1 -1.00000000 129.10000610 -10.67267323 -45.10137939 -855.65239906 0 0 -4 
321 7 1 -1.00000000 129.10000610 -9.03530407 -42.45441437 -857.62869644 0 0 -4 
322 7 1 -1.00000000 129.10000610 -7.88543749 -42.78948593 -861.15374947 0 0 -4 
323 7 2 1.00000000 128.19999695 -5.97636175 -39.89823532 -862.88331604 0 0 -4 
324 7 1 -1.00000000 129.10000610 -4.66844893 -37.42866516 -860.48200607 0 0 -4 
325 7 1 -1.00000000 129.10000610 -6.93922186 -34.37858582 -860.71497154 0 0 -4 
326 7 2 1.00000000 128.19999695 -10.72796345 -34.29280090 -861.12709808 0 0 -4 
327 7 2 1.00000000 128.19999695 -13.36636543 -31.77692795 -862.90563583 0 0 -4 
328 7 2 1.00000000 128.19999695 -15.51350689 -30.47634506 -865.78606033 0 0 -4 
329 7 2 1.00000000 128.19999695 -16.20601845 -29.95446396 -869.27442551 0 0 -4 
330 7 2 1.00000000 128.19999695 -19.43569565 -31.06852341 -871.53128052 0 0 -4 
331 7 1 -1.00000000 129.10000610 -23.06398392 -32.48999405 -872.12408447 0 0 -4 
332 7 1 -1.00000000 129.10000610 -25.02961540 -31.06252289 -869.41926193 0 0 -4 
333 7 1 -1.00000000 129.10000610 -26.37148666 -27.61661339 -868.00872421 0 0 -4 
334 7 2 1.00000000 128.19999695 -25.33491325 -24.13415337 -867.62288284 0 0 -4 
335 7 2 1.00000000 128.19999695 -26.45159912 -21.03554726 -869.58139420 0 0 -4 
336 7 2 1.00000000 128.19999695 -23.68580818 -20.20971489 -871.94861603 0 0 -4 
337 7 1 -1.00000000 129.10000610 -20.91685104 -19.33305931 -874.64351273 0 0 -4 
338 7 2 1.00000000 128.19999695 -21.51856995 -16.43722534 -876.70517349 0 0 -4 
339 7 1 -1.00000000 129.10000610 -23.44867516 -16.41766167 -879.58057404 0 0 -4 
340 7 1 -1.00000000 129.10000610 -24.54682732 -15.45982170 -883.47144318 0 0 -4 
341 7 1 -1.00000000 129.10000610 -27.79829216 -13.52889061 -882.93875122 0 0 -4 
342 7 2 1.00000000 128.19999695 -29.23854446 -12.21655083 -879.70543289 0 0 -4 
343 7 1 -1.00000000 129.10000610 -31.79511070 -9.25174332 -879.13383484 0 0 -4 
344 7 2 1.00000000 128.19999695 -34.78268051 -7.43921995 -878.01637268 0 0 -4 
345 7 2 1.00000000 128.19999695 -34.88006210 -6.74610996 -874.41461945 0 0 -4 
346 7 2 1.00000000 128.19999695 -36.02816391 -6.20963526 -871.13767624 0 0 -4 
347 7 1 -1.00000000 129.10000610 -38.81834412 -4.07520628 -871.76219177 0 0 -4 
348 7 2 1.00000000 128.19999695 -42.49424362 -5.05210876 -871.79492188 0 0 -4 
349 7 1 -1.00000000 129.10000610 -42.35315704 -8.81845379 -872.15213394 0 0 -4 
350 7 2 1.00000000 128.19999695 -41.49189377 -11.41059208 -875.15835953 0 0 -4 
351 8 2 1.00000000 128.19999695 43.84497833 -42.98190308 671.79410553 0 0 3 
352 8 1 -1.00000000 129.10000610 47.24951935 -43.22108459 670.56058502 0 0 3 
353 8 2 1.00000000 128.19999695 47.58832169 -46.15222168 668.13053894 0 0 3 
354 8 2 1.00000000 128.19999695 44.56103897 -48.05202484 667.02714920 0 0 3 
355 8 2 1.00000000 128.19999695 45.00195694 -51.53830719 666.04438782 0 0 3 
356 8 1 -1.00000000 129.10000610 46.02125549 -53.57526779 662.79945374 0 0 3 
357 8 2 1.00000000 128.19999695 46.31501389 -57.52973175 662.89881134 0 0 3 
358 8 1 -1.00000000 129.10000610 49.07224655 -58.63298035 665.45631790 0 0 3 
359 8 1 -1.00000000 129.10000610 48.48749924 -56.70816040 668.84346390 0 0 3 
360 8 1 -1.00000000 129.10000610 47.11269760 -59.39429092 670.89461899 0 0 3 
361 8 2 1.00000000 128.19999695 46.87198639 -60.97689819 674.42251587 0 0 3 
362 8 1 -1.00000000 129.10000610 43.53160095 -61.40427780 675.20211029 0 0 3 
363 8 1 -1.00000000 129.10000610 40.69546509 -62.17375183 678.02555466 0 0 3 
364 8 1 -1.00000000 129.10000610 39.05558395 -65.90968323 677.81539536 0 0 3 
365 8 2 1.00000000 128.19999695 37.47983170 -69.34870148 678.15225601 0 0 3 
366 8 2 1.00000000 128.19999695 35.25655365 -70.62895966 681.04080963 0 0 3 
367 8 1 -1.00000000 129.10000610 35.12845230 -74.02592468 682.44423294 0 0 3 
368 8 1 -1.00000000 129.10000610 37.94472885 -75.90573883 680.81065750 0 0 3 