ITEM: TIMESTEP
40750000 
ITEM: NUMBER OF ATOMS 
25000 
ITEM: BOX BOUNDS pp pp pp 
-103.678017 103.678017 
-103.678017 103.678017 
-103.678017 103.678017 
ITEM: ATOMS id mol type q mass xu yu zu ix iy iz 
1 1 2 1.00000000 128.19999695 352.21887207 83.36565399 -275.83148193 2 0 -1 
2 1 1 -1.00000000 129.10000610 352.96162033 87.39964294 -276.61600494 2 0 -1 
3 1 2 1.00000000 128.19999695 355.94817352 88.85346985 -278.12538910 2 0 -1 
4 1 2 1.00000000 128.19999695 357.84206772 92.18164825 -278.29415131 2 0 -1 
5 1 2 1.00000000 128.19999695 361.27215958 94.40600586 -279.48099518 2 0 -1 
6 1 1 -1.00000000 129.10000610 360.98277664 95.81017303 -282.87677765 2 0 -1 
7 1 2 1.00000000 128.19999695 358.47780228 98.19145966 -283.98035431 2 0 -1 
8 1 1 -1.00000000 129.10000610 354.97946548 96.70364380 -282.41480255 2 0 -1 
9 1 1 -1.00000000 129.10000610 354.90801620 92.94895935 -283.30548096 2 0 -1 
10 1 1 -1.00000000 129.10000610 356.19483185 90.56530762 -286.05799866 2 0 -1 
11 1 2 1.00000000 128.19999695 359.35514450 89.47174072 -287.60188293 2 0 -1 
12 1 1 -1.00000000 129.10000610 359.90939713 85.95771790 -289.24355316 2 0 -1 
13 1 1 -1.00000000 129.10000610 361.87402344 83.34733582 -291.24912262 2 0 -1 
14 1 1 -1.00000000 129.10000610 363.63442230 80.14961243 -290.50014496 2 0 -1 
15 1 2 1.00000000 128.19999695 365.57525253 78.06351471 -287.86019897 2 0 -1 
16 1 2 1.00000000 128.19999695 367.23247910 78.84895325 -284.67983246 2 0 -1 
17 1 1 -1.00000000 129.10000610 365.83766937 81.29224396 -282.07417297 2 0 -1 
18 1 1 -1.00000000 129.10000610 364.02093124 83.74215698 -279.59635925 2 0 -1 
19 1 2 1.00000000 128.19999695 361.09456635 84.85395813 -277.32170868 2 0 -1 
20 1 1 -1.00000000 129.10000610 358.62499237 82.96674347 -275.60769653 2 0 -1 
21 1 1 -1.00000000 129.10000610 357.68180466 79.29243469 -274.88668060 2 0 -1 
22 1 1 -1.00000000 129.10000610 357.05907059 77.46075439 -278.17384338 2 0 -1 
23 1 2 1.00000000 128.19999695 356.87645721 73.47003937 -279.14260864 2 0 -1 
24 1 1 -1.00000000 129.10000610 353.78051376 72.97013855 -277.87302399 2 0 -1 
25 1 1 -1.00000000 129.10000610 350.77765274 70.51110077 -278.00220490 2 0 -1 
26 1 2 1.00000000 128.19999695 350.82218552 68.84979248 -274.21054077 2 0 -1 
27 1 2 1.00000000 128.19999695 348.79817200 71.30059814 -271.80175018 2 0 -1 
28 1 2 1.00000000 128.19999695 347.14264679 68.62249756 -269.47313690 2 0 -1 
29 1 2 1.00000000 128.19999695 349.31082153 68.93035889 -266.40744781 2 0 -1 
30 1 2 1.00000000 128.19999695 353.31818771 68.34300232 -267.53270340 2 0 -1 
31 1 1 -1.00000000 129.10000610 355.85622406 67.67994690 -264.70493317 2 0 -1 
32 1 1 -1.00000000 129.10000610 358.67671204 65.29742432 -265.27573395 2 0 -1 
33 1 1 -1.00000000 129.10000610 361.01527405 66.25746918 -267.93465042 2 0 -1 
34 1 2 1.00000000 128.19999695 361.83791351 63.45905685 -270.12675858 2 0 -1 
35 1 2 1.00000000 128.19999695 363.91247559 60.49052811 -271.61840820 2 0 -1 
36 1 2 1.00000000 128.19999695 362.35204315 58.13356400 -273.79932404 2 0 -1 
37 1 1 -1.00000000 129.10000610 360.15344620 55.60151672 -275.24758148 2 0 -1 
38 1 2 1.00000000 128.19999695 361.11474991 52.19950867 -274.39180756 2 0 -1 
39 1 1 -1.00000000 129.10000610 362.75970840 49.73554993 -271.59501648 2 0 -1 
40 1 1 -1.00000000 129.10000610 363.80356598 46.28750992 -271.89437103 2 0 -1 
41 1 1 -1.00000000 129.10000610 363.72784424 43.18914413 -273.91519928 2 0 -1 
42 1 2 1.00000000 128.19999695 364.06049347 39.57046890 -273.38868713 2 0 -1 
43 1 1 -1.00000000 129.10000610 365.28593063 39.48502731 -269.79944992 2 0 -1 
44 1 2 1.00000000 128.19999695 368.38976669 38.54408646 -267.55223846 2 0 -1 
45 1 2 1.00000000 128.19999695 371.70181656 39.58349228 -266.72183609 2 0 -1 
46 1 2 1.00000000 128.19999695 373.88417053 36.26954651 -267.57946777 2 0 -1 
47 1 1 -1.00000000 129.10000610 372.65829086 32.60418701 -266.85962677 2 0 -1 
48 1 2 1.00000000 128.19999695 374.85028076 29.62345886 -267.98841095 2 0 -1 
49 1 1 -1.00000000 129.10000610 377.56039810 27.49864578 -269.19334030 2 0 -1 
50 1 2 1.00000000 128.19999695 379.86581421 25.86638832 -266.89396667 2 0 -1 
51 2 2 1.00000000 128.19999695 518.88646698 365.69937897 -260.86508942 3 2 -1 
52 2 1 -1.00000000 129.10000610 517.23648071 364.37746811 -264.15946579 2 2 -1 
53 2 2 1.00000000 128.19999695 518.58080292 365.95634079 -267.64896393 3 2 -1 
54 2 2 1.00000000 128.19999695 517.77574158 368.87850571 -270.06610870 2 2 -1 
55 2 2 1.00000000 128.19999695 517.88552856 372.65423584 -270.55615997 2 2 -1 
56 2 1 -1.00000000 129.10000610 520.32625580 374.34287643 -267.83943176 3 2 -1 
57 2 2 1.00000000 128.19999695 522.86866760 376.63251114 -266.07751846 3 2 -1 
58 2 1 -1.00000000 129.10000610 522.18720245 377.78570557 -262.38317490 3 2 -1 
59 2 1 -1.00000000 129.10000610 520.73823547 374.38505173 -260.82423782 3 2 -1 
60 2 1 -1.00000000 129.10000610 521.05484009 372.85065079 -257.45583725 3 2 -1 
61 2 2 1.00000000 128.19999695 524.93968964 373.29793930 -256.39020157 3 2 -1 
62 2 1 -1.00000000 129.10000610 527.81741333 375.05448151 -257.76389694 3 2 -1 
63 2 1 -1.00000000 129.10000610 530.69305420 375.43383789 -255.32514191 3 2 -1 
64 2 1 -1.00000000 129.10000610 529.20175171 375.66538620 -251.77085114 3 2 -1 
65 2 2 1.00000000 128.19999695 528.59854889 379.38020706 -251.76619720 3 2 -1 
66 2 2 1.00000000 128.19999695 525.18541718 380.85218811 -250.41978836 3 2 -1 
67 2 1 -1.00000000 129.10000610 525.13568115 384.19442749 -249.25813675 3 2 -1 
68 2 1 -1.00000000 129.10000610 522.40648651 385.51063728 -246.51297379 3 2 -1 
69 2 2 1.00000000 128.19999695 524.20654297 387.33251572 -243.94712830 3 2 -1 
70 2 1 -1.00000000 129.10000610 522.67556763 387.47115135 -240.59077454 3 2 -1 
71 2 1 -1.00000000 129.10000610 523.23993683 387.75594902 -236.85268593 3 2 -1 
72 2 1 -1.00000000 129.10000610 523.04736328 391.78779030 -236.37779236 3 2 -1 
73 2 2 1.00000000 128.19999695 521.44979095 395.20047760 -234.82487488 3 2 -1 
74 2 1 -1.00000000 129.10000610 518.83457947 397.35116005 -237.15711594 3 2 -1 
75 2 1 -1.00000000 129.10000610 517.46047211 400.26356220 -238.49354553 2 2 -1 
76 2 2 1.00000000 128.19999695 519.75229645 400.38980293 -241.59418488 3 2 -1 
77 2 2 1.00000000 128.19999695 521.67958069 399.40868664 -245.00069046 3 2 -1 
78 2 2 1.00000000 128.19999695 525.15219879 400.19141579 -246.01578140 3 2 -1 
79 2 2 1.00000000 128.19999695 526.61283112 403.91597366 -245.60878372 3 2 -1 
80 2 2 1.00000000 128.19999695 526.89665985 407.29722357 -247.29166412 3 2 -1 
81 2 1 -1.00000000 129.10000610 527.25828552 411.12893939 -246.96151733 3 2 -1 
82 2 1 -1.00000000 129.10000610 530.27878571 413.19021630 -246.99283981 3 2 -1 
83 2 1 -1.00000000 129.10000610 531.50353241 415.64582431 -244.09247208 3 2 -1 
84 2 2 1.00000000 128.19999695 527.85205078 416.65251434 -242.88659286 3 2 -1 
85 2 2 1.00000000 128.19999695 524.18285370 417.17438936 -242.15673447 3 2 -1 
86 2 2 1.00000000 128.19999695 521.83087921 418.69515443 -244.43447495 3 2 -1 
87 2 1 -1.00000000 129.10000610 522.28613281 421.02557135 -246.97947311 3 2 -1 
88 2 2 1.00000000 128.19999695 522.45474243 424.91925430 -246.76263809 3 2 -1 
89 2 1 -1.00000000 129.10000610 525.47711945 424.81506157 -244.29435349 3 2 -1 
90 2 1 -1.00000000 129.10000610 525.14962769 426.95823860 -241.04960251 3 2 -1 
91 2 1 -1.00000000 129.10000610 524.39578247 424.42154980 -238.64501953 3 2 -1 
92 2 2 1.00000000 128.19999695 521.95810699 426.15019798 -235.88514709 3 2 -1 
93 2 1 -1.00000000 129.10000610 521.85227203 429.28896713 -234.55504036 3 2 -1 
94 2 2 1.00000000 128.19999695 522.70762634 432.52251053 -235.74301720 3 2 -1 
95 2 2 1.00000000 128.19999695 523.86144257 432.85893059 -239.61335373 3 2 -1 
96 2 2 1.00000000 128.19999695 521.37055206 433.25192833 -242.44574738 3 2 -1 
97 2 1 -1.00000000 129.10000610 519.09863281 435.85011673 -244.62933731 3 2 -1 
98 2 2 1.00000000 128.19999695 516.64456177 438.60059357 -245.56217957 2 2 -1 
99 2 1 -1.00000000 129.10000610 513.47179413 440.39600372 -244.90602875 2 2 -1 
100 2 2 1.00000000 128.19999695 509.63574219 440.42576218 -245.13913727 2 2 -1 
101 3 2 1.00000000 128.19999695 307.72945404 -107.83113861 26.81930351 1 -1 0 
102 3 1 -1.00000000 129.10000610 308.28730011 -111.11101532 28.51005554 1 -1 0 
103 3 2 1.00000000 128.19999695 305.96694946 -114.30959320 28.99588394 1 -1 0 
104 3 2 1.00000000 128.19999695 304.60467529 -117.81726837 28.02214050 1 -1 0 
105 3 2 1.00000000 128.19999695 304.84739685 -121.56412506 27.96025085 1 -1 0 
106 3 1 -1.00000000 129.10000610 306.32993317 -124.67350006 28.62482643 1 -1 0 
107 3 2 1.00000000 128.19999695 310.11711884 -124.73786926 29.37293053 1 -1 0 
108 3 1 -1.00000000 129.10000610 312.82590485 -122.49600220 28.02484322 2 -1 0 
109 3 1 -1.00000000 129.10000610 310.95330048 -120.99228668 25.02089882 1 -1 0 
110 3 1 -1.00000000 129.10000610 309.35273743 -118.18309021 23.00944138 1 -1 0 
111 3 2 1.00000000 128.19999695 307.39943695 -120.08561707 19.96083260 1 -1 0 
112 3 1 -1.00000000 129.10000610 304.50988770 -117.92714691 18.58067513 1 -1 0 
113 3 1 -1.00000000 129.10000610 305.62021637 -114.84654999 17.54721260 1 -1 0 
114 3 1 -1.00000000 129.10000610 302.96301270 -113.80402374 14.70935059 1 -1 0 
115 3 2 1.00000000 128.19999695 302.51499939 -110.44515991 13.16645813 1 -1 0 
116 3 2 1.00000000 128.19999695 300.65357971 -110.73866272 9.60490417 1 -1 0 
117 3 1 -1.00000000 129.10000610 302.80772400 -113.35057068 7.58297729 1 -1 0 
118 3 1 -1.00000000 129.10000610 306.13294220 -112.47470856 5.59833431 1 -1 0 
119 3 2 1.00000000 128.19999695 307.31071472 -109.45227051 7.71582508 1 -1 0 
120 3 1 -1.00000000 129.10000610 308.42524719 -106.58718109 10.11917973 1 -1 0 
121 3 1 -1.00000000 129.10000610 310.92143250 -103.67443848 10.80061245 1 0 0 
122 3 1 -1.00000000 129.10000610 309.10420227 -100.42704010 9.47921371 1 0 0 
123 3 2 1.00000000 128.19999695 310.49828339 -99.57500458 6.00892639 1 0 0 
124 3 1 -1.00000000 129.10000610 312.38698578 -100.61587524 3.23342061 2 0 0 
125 3 1 -1.00000000 129.10000610 316.06688690 -100.75461578 3.54535413 2 0 0 
126 3 2 1.00000000 128.19999695 318.87897491 -97.82978058 3.45564222 2 0 0 
127 3 2 1.00000000 128.19999695 322.25186920 -97.08869171 4.59735775 2 0 0 
128 3 2 1.00000000 128.19999695 325.31411743 -97.44822693 2.65906358 2 0 0 
129 3 2 1.00000000 128.19999695 327.80598450 -94.40969849 2.68940187 2 0 0 
130 3 2 1.00000000 128.19999695 326.47241211 -90.85498047 3.39337683 2 0 0 
131 3 1 -1.00000000 129.10000610 323.40547943 -89.67427826 1.41262209 2 0 0 
132 3 1 -1.00000000 129.10000610 325.50754547 -87.23009491 -0.77388108 2 0 0 
133 3 1 -1.00000000 129.10000610 327.50350952 -83.96796417 -0.19852202 2 0 0 
134 3 2 1.00000000 128.19999695 324.68527222 -81.22106934 0.64483732 2 0 0 
135 3 2 1.00000000 128.19999695 325.78347015 -78.50338745 -1.72401512 2 0 0 
136 3 2 1.00000000 128.19999695 326.67751312 -78.89233398 -5.26993036 2 0 0 
137 3 1 -1.00000000 129.10000610 325.89458466 -82.31645966 -6.65184164 2 0 0 
138 3 2 1.00000000 128.19999695 326.45989227 -84.16442871 -9.94868660 2 0 0 
139 3 1 -1.00000000 129.10000610 323.81109619 -86.84381104 -10.54295158 2 0 0 
140 3 1 -1.00000000 129.10000610 320.68230438 -84.98930359 -10.71752644 2 0 0 
141 3 1 -1.00000000 129.10000610 318.45303345 -82.62395477 -8.99641132 2 0 0 
142 3 2 1.00000000 128.19999695 317.17276001 -83.28240204 -5.52247858 2 0 0 
143 3 1 -1.00000000 129.10000610 317.08055878 -87.20900726 -4.39582062 2 0 0 
144 3 2 1.00000000 128.19999695 317.09183502 -89.68194580 -1.39056206 2 0 0 
145 3 2 1.00000000 128.19999695 317.50672913 -93.26045990 -2.22596931 2 0 0 
146 3 2 1.00000000 128.19999695 321.13852692 -93.94460297 -3.52413440 2 0 0 
147 3 1 -1.00000000 129.10000610 321.04955292 -95.64960480 -6.79071236 2 0 0 
148 3 2 1.00000000 128.19999695 324.20948792 -96.22575378 -8.72820473 2 0 0 
149 3 1 -1.00000000 129.10000610 327.09813690 -93.83048248 -7.71943426 2 0 0 
150 3 2 1.00000000 128.19999695 329.31638336 -91.27082062 -5.75526142 2 0 0 
151 4 2 1.00000000 128.19999695 -310.58546448 306.79483795 -2.80880308 -1 1 0 
152 4 1 -1.00000000 129.10000610 -309.92303467 304.99085999 0.39738539 -1 1 0 
153 4 2 1.00000000 128.19999695 -309.48853302 302.86292267 3.44767904 -1 1 0 
154 4 2 1.00000000 128.19999695 -306.49974060 303.60796356 5.86462593 -1 1 0 
155 4 2 1.00000000 128.19999695 -303.21865845 305.56675720 5.06199932 -1 1 0 
156 4 1 -1.00000000 129.10000610 -303.17924500 307.92607880 2.12900734 -1 1 0 
157 4 2 1.00000000 128.19999695 -303.08300018 308.38996124 -1.55447090 -1 1 0 
158 4 1 -1.00000000 129.10000610 -300.71203613 310.59848022 -3.80029893 -1 1 0 
159 4 1 -1.00000000 129.10000610 -299.02588654 313.74439240 -2.28612304 -1 2 0 
160 4 1 -1.00000000 129.10000610 -295.30386353 314.70269012 -3.40673542 -1 2 0 
161 4 2 1.00000000 128.19999695 -294.92537689 312.81639099 -6.81778526 -1 2 0 
162 4 1 -1.00000000 129.10000610 -294.45628357 309.47535706 -8.04441166 -1 1 0 
163 4 1 -1.00000000 129.10000610 -292.24729919 307.49839020 -10.22717190 -1 1 0 
164 4 1 -1.00000000 129.10000610 -292.99324799 306.16161346 -13.43674850 -1 1 0 
165 4 2 1.00000000 128.19999695 -295.27267456 306.52521515 -16.71236610 -1 1 0 
166 4 2 1.00000000 128.19999695 -298.39537048 307.37416077 -18.90377617 -1 1 0 
167 4 1 -1.00000000 129.10000610 -302.02880096 306.72131348 -18.44976044 -1 1 0 
168 4 1 -1.00000000 129.10000610 -305.58612823 308.32412720 -17.84731865 -1 1 0 
169 4 2 1.00000000 128.19999695 -308.69495392 305.72464752 -18.28346634 -1 1 0 
170 4 1 -1.00000000 129.10000610 -310.20536804 303.81507874 -15.29370689 -1 1 0 
171 4 1 -1.00000000 129.10000610 -310.53453827 300.68661499 -13.33937645 -1 1 0 
172 4 1 -1.00000000 129.10000610 -310.88314056 297.22140503 -12.60607624 -1 1 0 
173 4 2 1.00000000 128.19999695 -312.75474548 294.26476288 -13.07126427 -2 1 0 
174 4 1 -1.00000000 129.10000610 -309.52608490 292.13607025 -13.71883774 -1 1 0 
175 4 1 -1.00000000 129.10000610 -307.04850769 289.49929810 -12.42367172 -1 1 0 
176 4 2 1.00000000 128.19999695 -307.11576080 287.09127808 -9.36426735 -1 1 0 
177 4 2 1.00000000 128.19999695 -310.45108032 287.71736145 -7.54170847 -1 1 0 
178 4 2 1.00000000 128.19999695 -313.53340912 286.07753754 -5.62753963 -2 1 0 
179 4 2 1.00000000 128.19999695 -314.96569061 282.69795990 -6.63439989 -2 1 0 
180 4 2 1.00000000 128.19999695 -313.08405304 280.44302368 -8.57483482 -2 1 0 
181 4 1 -1.00000000 129.10000610 -309.36250305 279.58678436 -8.32632542 -1 1 0 
182 4 1 -1.00000000 129.10000610 -306.75324249 281.63064575 -6.59453249 -1 1 0 
183 4 1 -1.00000000 129.10000610 -306.27251434 281.83294678 -2.67238927 -1 1 0 
184 4 2 1.00000000 128.19999695 -306.74727631 285.71827698 -1.82027614 -1 1 0 
185 4 2 1.00000000 128.19999695 -307.13080597 287.64260101 1.18308628 -1 1 0 
186 4 2 1.00000000 128.19999695 -309.16783905 286.80894470 4.88973284 -1 1 0 
187 4 1 -1.00000000 129.10000610 -312.95699310 287.16629791 4.52079391 -2 1 0 
188 4 2 1.00000000 128.19999695 -315.00714874 289.20603180 2.06980395 -2 1 0 
189 4 1 -1.00000000 129.10000610 -313.01916504 290.89479828 -0.67739326 -2 1 0 
190 4 1 -1.00000000 129.10000610 -310.43117523 293.77119446 -1.15180790 -1 1 0 
191 4 1 -1.00000000 129.10000610 -310.15158844 298.01531219 -0.98585051 -1 1 0 
192 4 2 1.00000000 128.19999695 -313.77382660 299.28461456 -1.40675366 -2 1 0 
193 4 1 -1.00000000 129.10000610 -317.05811310 300.54385376 -3.14838624 -2 1 0 
194 4 2 1.00000000 128.19999695 -318.71784973 301.24233246 -6.77097368 -2 1 0 
195 4 2 1.00000000 128.19999695 -319.46279144 305.05736542 -7.07453203 -2 1 0 
196 4 2 1.00000000 128.19999695 -317.61965942 306.35321808 -10.07774734 -2 1 0 
197 4 1 -1.00000000 129.10000610 -318.18624115 307.68054199 -13.66931534 -2 1 0 
198 4 2 1.00000000 128.19999695 -317.35816193 307.76380157 -16.96081734 -2 1 0 
199 4 1 -1.00000000 129.10000610 -320.05186462 307.38391876 -19.27939987 -2 1 0 
200 4 2 1.00000000 128.19999695 -323.81858826 308.02324677 -18.76703262 -2 1 0 
201 5 2 1.00000000 128.19999695 -354.33227539 -166.75886536 -252.59743881 -2 -1 -1 
202 5 1 -1.00000000 129.10000610 -353.59728622 -163.14035797 -253.21915817 -2 -1 -1 
203 5 2 1.00000000 128.19999695 -351.64363480 -159.73095703 -254.48562241 -2 -1 -1 
204 5 2 1.00000000 128.19999695 -348.40857697 -161.28804398 -253.33987045 -2 -1 -1 
205 5 2 1.00000000 128.19999695 -346.26167297 -163.54505920 -251.04254913 -2 -1 -1 
206 5 1 -1.00000000 129.10000610 -343.29132843 -161.42780304 -249.65915680 -2 -1 -1 
207 5 2 1.00000000 128.19999695 -342.18885803 -162.75758743 -246.63515472 -2 -1 -1 
208 5 1 -1.00000000 129.10000610 -340.30498505 -164.83810806 -244.69794846 -2 -1 -1 
209 5 1 -1.00000000 129.10000610 -340.41295624 -166.00595474 -241.18357849 -2 -1 -1 
210 5 1 -1.00000000 129.10000610 -339.91007996 -166.14118958 -237.16320229 -2 -1 -1 
211 5 2 1.00000000 128.19999695 -338.55636597 -168.00488663 -234.31334114 -2 -1 -1 
212 5 1 -1.00000000 129.10000610 -338.78494263 -168.06059265 -230.20434189 -2 -1 -1 
213 5 1 -1.00000000 129.10000610 -337.51626587 -170.51083755 -227.61066818 -2 -1 -1 
214 5 1 -1.00000000 129.10000610 -338.38728333 -170.65813065 -223.93687820 -2 -1 -1 
215 5 2 1.00000000 128.19999695 -340.97196198 -173.05556870 -222.56917667 -2 -1 -1 
216 5 2 1.00000000 128.19999695 -344.20629883 -174.21816635 -222.90907288 -2 -1 -1 
217 5 1 -1.00000000 129.10000610 -346.88893890 -175.65771866 -225.36483192 -2 -1 -1 
218 5 1 -1.00000000 129.10000610 -350.01765442 -177.98181152 -225.13625908 -2 -1 -1 
219 5 2 1.00000000 128.19999695 -352.49520493 -180.69661713 -225.37555122 -2 -1 -1 
220 5 1 -1.00000000 129.10000610 -356.09114456 -180.27522850 -227.50221825 -2 -1 -1 
221 5 1 -1.00000000 129.10000610 -357.53638840 -183.44588470 -229.41263580 -2 -1 -1 
222 5 1 -1.00000000 129.10000610 -354.34603119 -185.72580147 -228.91454697 -2 -1 -1 
223 5 2 1.00000000 128.19999695 -352.53741074 -189.18177223 -228.42961502 -2 -1 -1 
224 5 1 -1.00000000 129.10000610 -350.00143433 -190.20809555 -230.94923973 -2 -1 -1 
225 5 1 -1.00000000 129.10000610 -346.67409515 -188.83998108 -231.09084702 -2 -1 -1 
226 5 2 1.00000000 128.19999695 -343.36002350 -187.07303047 -231.37216568 -2 -1 -1 
227 5 2 1.00000000 128.19999695 -341.19314575 -189.22240448 -233.17284775 -2 -1 -1 
228 5 2 1.00000000 128.19999695 -340.23230743 -190.90217781 -236.41128159 -2 -1 -1 
229 5 2 1.00000000 128.19999695 -341.95801544 -192.54636192 -238.97702217 -2 -1 -1 
230 5 2 1.00000000 128.19999695 -343.54495239 -192.10925007 -242.39260101 -2 -1 -1 
231 5 1 -1.00000000 129.10000610 -340.35448456 -191.00232124 -244.30030060 -2 -1 -1 
232 5 1 -1.00000000 129.10000610 -337.92220306 -194.17309284 -244.89553070 -2 -1 -1 
233 5 1 -1.00000000 129.10000610 -336.33432770 -196.04479599 -241.97477341 -2 -1 -1 
234 5 2 1.00000000 128.19999695 -337.16642761 -198.72243977 -239.35459709 -2 -1 -1 
235 5 2 1.00000000 128.19999695 -340.72051239 -199.42050552 -240.50033188 -2 -1 -1 
236 5 2 1.00000000 128.19999695 -344.19266510 -198.87559414 -239.49401474 -2 -1 -1 
237 5 1 -1.00000000 129.10000610 -345.17222595 -197.54309082 -236.17532730 -2 -1 -1 
238 5 2 1.00000000 128.19999695 -348.44618225 -197.65272141 -234.19938850 -2 -1 -1 
239 5 1 -1.00000000 129.10000610 -350.04649353 -194.98017693 -236.53927231 -2 -1 -1 
240 5 1 -1.00000000 129.10000610 -351.27550888 -191.98942280 -238.65019608 -2 -1 -1 
241 5 1 -1.00000000 129.10000610 -349.28251648 -188.58732033 -239.13850784 -2 -1 -1 
242 5 2 1.00000000 128.19999695 -350.79269028 -185.47308159 -238.42119408 -2 -1 -1 
243 5 1 -1.00000000 129.10000610 -352.22819901 -182.89313698 -236.04992485 -2 -1 -1 
244 5 2 1.00000000 128.19999695 -351.23608017 -179.30611038 -235.21833420 -2 -1 -1 
245 5 2 1.00000000 128.19999695 -348.03815460 -178.76259613 -237.38414383 -2 -1 -1 
246 5 2 1.00000000 128.19999695 -344.48522949 -179.59497070 -237.26050568 -2 -1 -1 
247 5 1 -1.00000000 129.10000610 -342.11304474 -177.79470634 -240.09152603 -2 -1 -1 
248 5 2 1.00000000 128.19999695 -339.27832794 -179.05813789 -241.77967453 -2 -1 -1 
249 5 1 -1.00000000 129.10000610 -339.30664825 -182.38923454 -243.71819305 -2 -1 -1 
250 5 2 1.00000000 128.19999695 -336.69382477 -185.34914017 -241.97192001 -2 -1 -1 
251 6 2 1.00000000 128.19999695 401.90375328 -486.80898285 14.48172283 2 -2 0 
252 6 1 -1.00000000 129.10000610 400.00280571 -487.43708038 11.48199463 2 -2 0 
253 6 2 1.00000000 128.19999695 401.07750797 -485.13101196 8.50430870 2 -2 0 
254 6 2 1.00000000 128.19999695 402.70932293 -483.82758331 5.25640869 2 -2 0 
255 6 2 1.00000000 128.19999695 401.29270744 -484.41847992 1.67159390 2 -2 0 
256 6 1 -1.00000000 129.10000610 397.90251923 -483.97348022 -0.24059060 2 -2 0 
257 6 2 1.00000000 128.19999695 397.56819725 -480.11212921 -1.41996527 2 -2 0 
258 6 1 -1.00000000 129.10000610 398.31260300 -477.76103210 -4.36617851 2 -2 0 
259 6 1 -1.00000000 129.10000610 397.29963684 -473.96781158 -3.58933806 2 -2 0 
260 6 1 -1.00000000 129.10000610 398.45753479 -470.28509140 -2.99965215 2 -2 0 
261 6 2 1.00000000 128.19999695 398.90882492 -466.34005356 -2.29786730 2 -2 0 
262 6 1 -1.00000000 129.10000610 399.75740814 -462.96274567 -3.61548209 2 -2 0 
263 6 1 -1.00000000 129.10000610 398.61794853 -460.72056198 -6.71182966 2 -2 0 
264 6 1 -1.00000000 129.10000610 397.67024231 -460.01046371 -10.17614937 2 -2 0 
265 6 2 1.00000000 128.19999695 400.05226231 -459.53248978 -12.92242050 2 -2 0 
266 6 2 1.00000000 128.19999695 400.07489681 -461.99137878 -15.79720688 2 -2 0 
267 6 1 -1.00000000 129.10000610 402.13104057 -463.23700333 -18.70040894 2 -2 0 
268 6 1 -1.00000000 129.10000610 405.20970917 -461.72742462 -20.03782463 2 -2 0 
269 6 2 1.00000000 128.19999695 406.69245529 -458.85690308 -18.08674622 2 -2 0 
270 6 1 -1.00000000 129.10000610 407.87557173 -455.35698700 -16.79201317 2 -2 0 
271 6 1 -1.00000000 129.10000610 407.91756821 -452.46257782 -19.33607483 2 -2 0 
272 6 1 -1.00000000 129.10000610 406.99307060 -449.10460663 -21.05149841 2 -2 0 
273 6 2 1.00000000 128.19999695 404.62257290 -447.10014343 -18.51529121 2 -2 0 
274 6 1 -1.00000000 129.10000610 401.57402611 -446.94118118 -16.49645615 2 -2 0 
275 6 1 -1.00000000 129.10000610 401.69886684 -445.09644127 -13.58199596 2 -2 0 
276 6 2 1.00000000 128.19999695 403.89348030 -446.38947105 -10.92609406 2 -2 0 
277 6 2 1.00000000 128.19999695 403.35519123 -449.88195038 -10.30204773 2 -2 0 
278 6 2 1.00000000 128.19999695 401.68677330 -453.24539948 -9.62623882 2 -2 0 
279 6 2 1.00000000 128.19999695 401.92158222 -454.85517883 -5.86652756 2 -2 0 
280 6 2 1.00000000 128.19999695 405.05108547 -455.20747757 -3.20478606 2 -2 0 
281 6 1 -1.00000000 129.10000610 408.31099892 -453.55889511 -3.98698783 2 -2 0 
282 6 1 -1.00000000 129.10000610 409.92456770 -451.71259308 -7.13733721 2 -2 0 
283 6 1 -1.00000000 129.10000610 409.76584196 -449.05112839 -9.36249161 2 -2 0 
284 6 2 1.00000000 128.19999695 410.73096657 -445.37643051 -10.37818432 2 -2 0 
285 6 2 1.00000000 128.19999695 412.33930254 -443.58532715 -13.16149998 2 -2 0 
286 6 2 1.00000000 128.19999695 415.56564116 -441.44516945 -14.10058975 2 -2 0 
287 6 1 -1.00000000 129.10000610 417.27961755 -437.92834663 -14.18637848 2 -2 0 
288 6 2 1.00000000 128.19999695 418.88629723 -434.91953087 -12.61438370 2 -2 0 
289 6 1 -1.00000000 129.10000610 415.88763785 -432.61896324 -11.77805233 2 -2 0 
290 6 1 -1.00000000 129.10000610 413.01575863 -430.69422054 -13.20326042 2 -2 0 
291 6 1 -1.00000000 129.10000610 411.27663422 -427.31736565 -12.57530594 2 -2 0 
292 6 2 1.00000000 128.19999695 409.86389399 -425.27386379 -15.55956554 2 -2 0 
293 6 1 -1.00000000 129.10000610 408.94280434 -422.07233429 -17.42436981 2 -2 0 
294 6 2 1.00000000 128.19999695 409.11012125 -419.45063877 -15.01568699 2 -2 0 
295 6 2 1.00000000 128.19999695 405.98940182 -419.06143570 -12.54451275 2 -2 0 
296 6 2 1.00000000 128.19999695 403.34887028 -417.53381109 -15.47371960 2 -2 0 
297 6 1 -1.00000000 129.10000610 402.83548832 -414.00697851 -16.15892410 2 -2 0 
298 6 2 1.00000000 128.19999695 400.16030312 -410.94660783 -16.64666748 2 -2 0 
299 6 1 -1.00000000 129.10000610 398.85759449 -407.35801029 -16.89913750 2 -2 0 
300 6 2 1.00000000 128.19999695 398.70876503 -403.79433727 -15.67222118 2 -2 0 
301 7 2 1.00000000 128.19999695 -141.52395630 14.31357384 -968.56909943 -1 0 -5 
302 7 1 -1.00000000 129.10000610 -144.05710602 11.16704464 -967.36095428 -1 0 -5 
303 7 2 1.00000000 128.19999695 -143.48502350 7.47505140 -966.86959839 -1 0 -5 
304 7 2 1.00000000 128.19999695 -145.91730499 5.79389906 -964.52794647 -1 0 -5 
305 7 2 1.00000000 128.19999695 -149.29040146 3.91837168 -964.78716278 -1 0 -5 
306 7 1 -1.00000000 129.10000610 -151.57247543 2.97896957 -967.68354797 -1 0 -5 
307 7 2 1.00000000 128.19999695 -154.63125992 2.96253848 -970.05199432 -1 0 -5 
308 7 1 -1.00000000 129.10000610 -155.81321716 -0.89260030 -971.06586456 -1 0 -5 
309 7 1 -1.00000000 129.10000610 -158.45078659 -3.85117650 -971.83266449 -1 0 -5 
310 7 1 -1.00000000 129.10000610 -157.31797028 -7.32281446 -969.93365479 -1 0 -5 
311 7 2 1.00000000 128.19999695 -154.36945724 -9.10725021 -971.24026489 -1 0 -5 
312 7 1 -1.00000000 129.10000610 -153.29169083 -12.99389648 -971.23898315 -1 0 -5 
313 7 1 -1.00000000 129.10000610 -155.67262268 -14.47915173 -969.05800629 -1 0 -5 
314 7 1 -1.00000000 129.10000610 -155.68641663 -11.86521339 -966.27590942 -1 0 -5 
315 7 2 1.00000000 128.19999695 -152.59175491 -12.94748402 -964.09706116 -1 0 -5 
316 7 2 1.00000000 128.19999695 -149.86076736 -15.37215614 -962.97360229 -1 0 -5 
317 7 1 -1.00000000 129.10000610 -146.19882202 -16.09628296 -963.95291138 -1 0 -5 
318 7 1 -1.00000000 129.10000610 -142.85423279 -16.44036293 -963.25921631 -1 0 -5 
319 7 2 1.00000000 128.19999695 -139.24099731 -17.91281128 -964.09011078 -1 0 -5 
320 7 1 -1.00000000 129.10000610 -136.98964691 -20.99214554 -962.69235229 -1 0 -5 
321 7 1 -1.00000000 129.10000610 -133.06325531 -21.22410393 -962.62838745 -1 0 -5 
322 7 1 -1.00000000 129.10000610 -131.43289948 -23.64844131 -960.17999268 -1 0 -5 
323 7 2 1.00000000 128.19999695 -131.62886047 -24.84818268 -956.31649017 -1 0 -5 
324 7 1 -1.00000000 129.10000610 -129.12676239 -24.59022331 -953.54800415 -1 0 -5 
325 7 1 -1.00000000 129.10000610 -125.90175629 -26.50896263 -954.57571411 -1 0 -5 
326 7 2 1.00000000 128.19999695 -122.77601624 -24.59605217 -954.66683960 -1 0 -5 
327 7 2 1.00000000 128.19999695 -123.88989258 -22.07121086 -957.59986877 -1 0 -5 
328 7 2 1.00000000 128.19999695 -125.46690369 -20.32352448 -960.15847015 -1 0 -5 
329 7 2 1.00000000 128.19999695 -125.93103790 -21.90350151 -963.56980133 -1 0 -5 
330 7 2 1.00000000 128.19999695 -126.42260742 -20.91543007 -967.50296021 -1 0 -5 
331 7 1 -1.00000000 129.10000610 -125.92620087 -24.17448807 -969.33277130 -1 0 -5 
332 7 1 -1.00000000 129.10000610 -126.02666473 -27.04882240 -967.16845703 -1 0 -5 
333 7 1 -1.00000000 129.10000610 -128.76048279 -29.50334549 -966.24234009 -1 0 -5 
334 7 2 1.00000000 128.19999695 -132.00810242 -28.07968712 -964.77827454 -1 0 -5 
335 7 2 1.00000000 128.19999695 -135.49090576 -27.32558632 -965.49819946 -1 0 -5 
336 7 2 1.00000000 128.19999695 -138.57727051 -29.60837555 -965.24750519 -1 0 -5 
337 7 1 -1.00000000 129.10000610 -141.63079834 -27.13813400 -965.50768280 -1 0 -5 
338 7 2 1.00000000 128.19999695 -142.04294586 -24.39593315 -967.76934052 -1 0 -5 
339 7 1 -1.00000000 129.10000610 -145.30033875 -22.49762535 -966.65650940 -1 0 -5 
340 7 1 -1.00000000 129.10000610 -146.39028168 -24.29060936 -963.16641998 -1 0 -5 
341 7 1 -1.00000000 129.10000610 -144.35860825 -22.58768654 -960.59066010 -1 0 -5 
342 7 2 1.00000000 128.19999695 -143.43650818 -20.89275360 -957.45576477 -1 0 -5 
343 7 1 -1.00000000 129.10000610 -141.57032776 -21.72052765 -954.30739594 -1 0 -5 
344 7 2 1.00000000 128.19999695 -137.89885712 -23.16901588 -954.50418091 -1 0 -5 
345 7 2 1.00000000 128.19999695 -137.47501373 -26.57470512 -952.85803986 -1 0 -5 
346 7 2 1.00000000 128.19999695 -135.01383209 -29.26424408 -951.46005249 -1 0 -5 
347 7 1 -1.00000000 129.10000610 -131.68051910 -31.39776039 -951.05179596 -1 0 -5 
348 7 2 1.00000000 128.19999695 -127.86901855 -30.74351120 -949.93087769 -1 0 -5 
349 7 1 -1.00000000 129.10000610 -128.28215790 -27.74995232 -947.99675751 -1 0 -5 
350 7 2 1.00000000 128.19999695 -124.76762390 -26.69964218 -946.90405273 -1 0 -5 
351 8 2 1.00000000 128.19999695 46.77641296 -106.96973419 631.83887482 0 -1 3 
352 8 1 -1.00000000 129.10000610 48.81610870 -106.73342133 635.04463005 0 -1 3 
353 8 2 1.00000000 128.19999695 47.97475815 -104.89758301 638.77087021 0 -1 3 
354 8 2 1.00000000 128.19999695 49.53483582 -102.99401855 641.35244560 0 0 3 
355 8 2 1.00000000 128.19999695 51.71200180 -105.24632263 643.82866859 0 -1 3 
356 8 1 -1.00000000 129.10000610 49.10604095 -104.79943085 646.73058701 0 -1 3 
357 8 2 1.00000000 128.19999695 49.20976639 -101.39305878 648.54922867 0 0 3 
358 8 1 -1.00000000 129.10000610 46.41056442 -98.75237274 648.85226250 0 0 3 
359 8 1 -1.00000000 129.10000610 43.13444901 -98.32353210 650.49652863 0 0 3 
360 8 1 -1.00000000 129.10000610 39.79825592 -99.42058563 648.96345329 0 0 3 
361 8 2 1.00000000 128.19999695 38.34519196 -101.19616699 645.88441849 0 0 3 
362 8 1 -1.00000000 129.10000610 35.55361557 -101.28096771 643.29770851 0 0 3 
363 8 1 -1.00000000 129.10000610 35.63265610 -100.16136932 639.61542130 0 0 3 
364 8 1 -1.00000000 129.10000610 34.76581955 -96.53639984 640.08369827 0 0 3 
365 8 2 1.00000000 128.19999695 36.51455307 -94.83589935 637.00905609 0 0 3 
366 8 2 1.00000000 128.19999695 37.01594543 -91.79453278 635.10404778 0 0 3 
367 8 1 -1.00000000 129.10000610 37.38532257 -89.44504547 632.01242733 0 0 3 
368 8 1 -1.00000000 129.10000610 38.96506119 -86.39537811 632.21081066 0 0 3 
369 8 2 1.00000000 128.19999695 41.45332336 -84.19042206 630.46417713 0 0 3 
370 8 1 -1.00000000 129.10000610 42.84728622 -83.91689301 626.96867847 0 0 3 
371 8 1 -1.00000000 129.10000610 41.25848389 -86.79041290 624.40019798 0 0 3 