ITEM: TIMESTEP
40350000 
ITEM: NUMBER OF ATOMS 
25000 
ITEM: BOX BOUNDS pp pp pp 
-103.678017 103.678017 
-103.678017 103.678017 
-103.678017 103.678017 
ITEM: ATOMS id mol type q mass xu yu zu ix iy iz 
1 1 2 1.00000000 128.19999695 443.16740799 28.54259300 -342.21968842 2 0 -2 
2 1 1 -1.00000000 129.10000610 440.84449196 26.00104713 -343.03211975 2 0 -2 
3 1 2 1.00000000 128.19999695 438.71168709 27.59180450 -346.00341034 2 0 -2 
4 1 2 1.00000000 128.19999695 439.10881615 30.89110374 -347.41000366 2 0 -2 
5 1 2 1.00000000 128.19999695 439.40996933 33.57470703 -350.23201752 2 0 -2 
6 1 1 -1.00000000 129.10000610 435.82070160 35.28214264 -350.48132324 2 0 -2 
7 1 2 1.00000000 128.19999695 434.67846107 39.11591339 -349.95230103 2 0 -2 
8 1 1 -1.00000000 129.10000610 433.96537590 42.88658142 -348.68744659 2 0 -2 
9 1 1 -1.00000000 129.10000610 433.12603569 46.51048660 -348.64253998 2 0 -2 
10 1 1 -1.00000000 129.10000610 430.71977425 49.77910614 -348.33809662 2 0 -2 
11 1 2 1.00000000 128.19999695 429.38658142 49.38905334 -344.70024109 2 0 -2 
12 1 1 -1.00000000 129.10000610 428.24359322 52.90697098 -343.65484619 2 0 -2 
13 1 1 -1.00000000 129.10000610 427.01202774 53.38046646 -340.08511353 2 0 -2 
14 1 1 -1.00000000 129.10000610 424.12916374 55.43877029 -340.14669037 2 0 -2 
15 1 2 1.00000000 128.19999695 423.45459652 58.72458649 -342.07592773 2 0 -2 
16 1 2 1.00000000 128.19999695 424.93778324 61.92110062 -343.80650330 2 0 -2 
17 1 1 -1.00000000 129.10000610 428.83091640 61.00929260 -344.53041077 2 0 -2 
18 1 1 -1.00000000 129.10000610 432.22004318 62.83299637 -345.99709320 2 0 -2 
19 1 2 1.00000000 128.19999695 435.13455963 64.56300354 -348.04365540 2 0 -2 
20 1 1 -1.00000000 129.10000610 434.44668770 67.26876831 -350.71028900 2 0 -2 
21 1 1 -1.00000000 129.10000610 433.19822884 70.49831390 -351.03215027 2 0 -2 
22 1 1 -1.00000000 129.10000610 432.67883301 74.03860474 -350.52793884 2 0 -2 
23 1 2 1.00000000 128.19999695 434.50873756 76.11294556 -353.38002014 2 0 -2 
24 1 1 -1.00000000 129.10000610 434.09528732 75.07920837 -357.14795685 2 0 -2 
25 1 1 -1.00000000 129.10000610 430.54673100 74.11737823 -357.66670990 2 0 -2 
26 1 2 1.00000000 128.19999695 429.41045570 71.29248810 -359.92506027 2 0 -2 
27 1 2 1.00000000 128.19999695 431.86914825 68.04577637 -360.11832809 2 0 -2 
28 1 2 1.00000000 128.19999695 434.77684784 67.01533508 -358.67808533 2 0 -2 
29 1 2 1.00000000 128.19999695 437.13259888 63.97755051 -359.64722061 2 0 -2 
30 1 2 1.00000000 128.19999695 435.13585472 62.15905380 -362.74645233 2 0 -2 
31 1 1 -1.00000000 129.10000610 432.39207268 62.40353775 -365.20600128 2 0 -2 
32 1 1 -1.00000000 129.10000610 429.26599026 62.95294189 -363.34682846 2 0 -2 
33 1 1 -1.00000000 129.10000610 426.93941879 61.73727798 -360.74756241 2 0 -2 
34 1 2 1.00000000 128.19999695 425.49069214 58.93067169 -358.12698746 2 0 -2 
35 1 2 1.00000000 128.19999695 423.24927044 55.60010910 -357.09374619 2 0 -2 
36 1 2 1.00000000 128.19999695 420.97423840 54.68546295 -354.10163879 2 0 -2 
37 1 1 -1.00000000 129.10000610 420.55660057 50.71373367 -354.36137772 2 0 -2 
38 1 2 1.00000000 128.19999695 422.65782309 48.21369934 -352.53608704 2 0 -2 
39 1 1 -1.00000000 129.10000610 422.06879187 45.16424179 -350.40037537 2 0 -2 
40 1 1 -1.00000000 129.10000610 419.10615253 42.34731293 -350.11568451 2 0 -2 
41 1 1 -1.00000000 129.10000610 416.76871252 39.65141678 -351.42018890 2 0 -2 
42 1 2 1.00000000 128.19999695 413.30320394 37.73675156 -352.84486008 2 0 -2 
43 1 1 -1.00000000 129.10000610 411.34705257 35.14030457 -350.86281204 2 0 -2 
44 1 2 1.00000000 128.19999695 410.71895456 36.31190109 -347.28585052 2 0 -2 
45 1 2 1.00000000 128.19999695 412.17649841 33.47092056 -345.05330658 2 0 -2 
46 1 2 1.00000000 128.19999695 415.39249396 32.96073914 -342.94651031 2 0 -2 
47 1 1 -1.00000000 129.10000610 418.33549738 35.55814362 -343.18810272 2 0 -2 
48 1 2 1.00000000 128.19999695 417.31675363 38.99346542 -341.89231110 2 0 -2 
49 1 1 -1.00000000 129.10000610 415.00940239 39.80296326 -338.86164856 2 0 -2 
50 1 2 1.00000000 128.19999695 412.32176495 37.20650482 -338.38609314 2 0 -2 
51 2 2 1.00000000 128.19999695 498.97757721 491.57890320 -210.38604450 2 2 -1 
52 2 1 -1.00000000 129.10000610 496.37493896 488.84814453 -210.49014735 2 2 -1 
53 2 2 1.00000000 128.19999695 494.90559387 485.53194427 -211.98057413 2 2 -1 
54 2 2 1.00000000 128.19999695 495.08524323 481.80141449 -210.76736236 2 2 -1 
55 2 2 1.00000000 128.19999695 493.44617462 479.15106964 -212.78522539 2 2 -1 
56 2 1 -1.00000000 129.10000610 493.76594543 477.54951477 -216.18743229 2 2 -1 
57 2 2 1.00000000 128.19999695 490.89027405 475.24084854 -217.25449181 2 2 -1 
58 2 1 -1.00000000 129.10000610 493.64723969 472.88943863 -218.88982105 2 2 -1 
59 2 1 -1.00000000 129.10000610 496.39669800 474.11838913 -221.40422821 2 2 -1 
60 2 1 -1.00000000 129.10000610 498.22567749 475.92194748 -224.25792122 2 2 -1 
61 2 2 1.00000000 128.19999695 496.09927368 477.36222076 -226.84771156 2 2 -1 
62 2 1 -1.00000000 129.10000610 495.36740112 475.12621307 -230.08216858 2 2 -1 
63 2 1 -1.00000000 129.10000610 494.31420135 471.16722107 -229.34601402 2 2 -1 
64 2 1 -1.00000000 129.10000610 497.48901367 470.13060379 -227.51346588 2 2 -1 
65 2 2 1.00000000 128.19999695 500.31967926 467.97127151 -229.17805290 2 2 -1 
66 2 2 1.00000000 128.19999695 499.11796570 469.08489990 -232.77790833 2 2 -1 
67 2 1 -1.00000000 129.10000610 499.33922577 466.81924438 -235.63598442 2 2 -1 
68 2 1 -1.00000000 129.10000610 499.95909119 466.23827362 -239.12465286 2 2 -1 
69 2 2 1.00000000 128.19999695 501.13308716 462.56249619 -239.16114616 2 2 -1 
70 2 1 -1.00000000 129.10000610 498.06538391 461.03690720 -238.06330109 2 2 -1 
71 2 1 -1.00000000 129.10000610 496.41707611 460.57601547 -234.64743614 2 2 -1 
72 2 1 -1.00000000 129.10000610 493.77449799 463.12433624 -234.86342049 2 2 -1 
73 2 2 1.00000000 128.19999695 490.27581024 462.85066223 -236.32818413 2 2 -1 
74 2 1 -1.00000000 129.10000610 490.24945831 465.90366745 -238.36754990 2 2 -1 
75 2 1 -1.00000000 129.10000610 487.29226685 468.13764572 -237.77108383 2 2 -1 
76 2 2 1.00000000 128.19999695 486.10243988 467.89286804 -233.91940880 2 2 -1 
77 2 2 1.00000000 128.19999695 486.68190002 469.63747787 -230.42152023 2 2 -1 
78 2 2 1.00000000 128.19999695 487.58307648 473.07460785 -229.16535759 2 2 -1 
79 2 2 1.00000000 128.19999695 489.22686768 475.32160568 -226.63733292 2 2 -1 
80 2 2 1.00000000 128.19999695 490.79138184 478.34461212 -224.71838760 2 2 -1 
81 2 1 -1.00000000 129.10000610 488.44465637 480.52627563 -222.35657120 2 2 -1 
82 2 1 -1.00000000 129.10000610 486.73934174 482.03217316 -219.17150307 2 2 -1 
83 2 1 -1.00000000 129.10000610 489.26342010 482.14393616 -216.80306530 2 2 -1 
84 2 2 1.00000000 128.19999695 491.33917999 485.23242950 -217.08786011 2 2 -1 
85 2 2 1.00000000 128.19999695 493.22206879 486.73153687 -219.88595963 2 2 -1 
86 2 2 1.00000000 128.19999695 496.66902161 488.56221008 -220.18013000 2 2 -1 
87 2 1 -1.00000000 129.10000610 499.36122894 489.72620392 -217.72337341 2 2 -1 
88 2 2 1.00000000 128.19999695 502.27650452 487.10306549 -216.73984432 2 2 -1 
89 2 1 -1.00000000 129.10000610 502.91351318 483.91065979 -214.72145462 2 2 -1 
90 2 1 -1.00000000 129.10000610 500.68988037 480.77769470 -213.86987209 2 2 -1 
91 2 1 -1.00000000 129.10000610 499.51290894 477.37893295 -212.86583996 2 2 -1 
92 2 2 1.00000000 128.19999695 500.78661346 474.75643158 -215.74228382 2 2 -1 
93 2 1 -1.00000000 129.10000610 503.59218597 472.44939804 -214.06784916 2 2 -1 
94 2 2 1.00000000 128.19999695 506.90504456 474.76031494 -213.90600348 2 2 -1 
95 2 2 1.00000000 128.19999695 505.79548645 478.01349258 -212.12458277 2 2 -1 
96 2 2 1.00000000 128.19999695 504.64531708 480.42587280 -209.21976471 2 2 -1 
97 2 1 -1.00000000 129.10000610 502.38694763 482.31909180 -206.90388581 2 2 -1 
98 2 2 1.00000000 128.19999695 504.65795135 482.58714294 -203.73877549 2 2 -1 
99 2 1 -1.00000000 129.10000610 506.90893555 482.31056213 -200.54279661 2 2 -1 
100 2 2 1.00000000 128.19999695 506.31237030 479.29468536 -198.31232262 2 2 -1 
101 3 2 1.00000000 128.19999695 341.74236298 -57.21775436 -7.32466984 2 0 0 
102 3 1 -1.00000000 129.10000610 338.04592896 -57.70903015 -6.37120914 2 0 0 
103 3 2 1.00000000 128.19999695 336.58641052 -57.01831818 -3.26645374 2 0 0 
104 3 2 1.00000000 128.19999695 335.08373260 -53.53004074 -3.97702003 2 0 0 
105 3 2 1.00000000 128.19999695 337.12040710 -51.04265594 -1.79700148 2 0 0 
106 3 1 -1.00000000 129.10000610 338.62786102 -48.45378494 -4.63070631 2 0 0 
107 3 2 1.00000000 128.19999695 337.97982788 -46.29954529 -7.71175814 2 0 0 
108 3 1 -1.00000000 129.10000610 335.46405029 -43.83921432 -8.15154934 2 0 0 
109 3 1 -1.00000000 129.10000610 333.10201263 -42.19563293 -10.20920467 2 0 0 
110 3 1 -1.00000000 129.10000610 329.79052734 -42.79988861 -8.75552654 2 0 0 
111 3 2 1.00000000 128.19999695 326.59322357 -43.91083145 -7.15110731 2 0 0 
112 3 1 -1.00000000 129.10000610 323.65041351 -42.07259369 -5.48764944 2 0 0 
113 3 1 -1.00000000 129.10000610 325.51473999 -39.34366226 -3.29659891 2 0 0 
114 3 1 -1.00000000 129.10000610 323.37213135 -37.63910294 -0.45263323 2 0 0 
115 3 2 1.00000000 128.19999695 320.90206909 -40.34159470 0.75815630 2 0 0 
116 3 2 1.00000000 128.19999695 322.99059296 -43.28424454 1.21309638 2 0 0 
117 3 1 -1.00000000 129.10000610 322.81791687 -44.83019638 4.69435835 2 0 0 
118 3 1 -1.00000000 129.10000610 323.27852631 -42.66429901 7.33269358 2 0 0 
119 3 2 1.00000000 128.19999695 326.80599976 -41.34601212 6.80890322 2 0 0 
120 3 1 -1.00000000 129.10000610 327.73494720 -39.49835205 9.71113682 2 0 0 
121 3 1 -1.00000000 129.10000610 328.74076080 -36.39462662 11.22604656 2 0 0 
122 3 1 -1.00000000 129.10000610 326.53791046 -34.62911987 14.42376423 2 0 0 
123 3 2 1.00000000 128.19999695 323.47935486 -36.62604141 14.75021839 2 0 0 
124 3 1 -1.00000000 129.10000610 320.23486328 -36.83877563 16.42856979 2 0 0 
125 3 1 -1.00000000 129.10000610 320.13173676 -35.37662506 19.75391197 2 0 0 
126 3 2 1.00000000 128.19999695 317.39929962 -35.53997040 21.98084259 2 0 0 
127 3 2 1.00000000 128.19999695 313.73390961 -36.01503372 23.14480782 2 0 0 
128 3 2 1.00000000 128.19999695 310.72254944 -33.47615433 22.65628815 1 0 0 
129 3 2 1.00000000 128.19999695 310.83242035 -30.32029724 20.29087830 1 0 0 
130 3 2 1.00000000 128.19999695 312.21289825 -26.93511772 18.64362144 2 0 0 
131 3 1 -1.00000000 129.10000610 309.88980865 -25.55708313 16.12751389 1 0 0 
132 3 1 -1.00000000 129.10000610 307.88501740 -22.33465576 16.50926018 1 0 0 
133 3 1 -1.00000000 129.10000610 307.90934753 -19.51760101 13.64491272 1 0 0 
134 3 2 1.00000000 128.19999695 305.27152252 -17.04138947 14.71040058 1 0 0 
135 3 2 1.00000000 128.19999695 304.85646057 -16.43805313 18.49751472 1 0 0 
136 3 2 1.00000000 128.19999695 304.03852844 -19.41706657 21.04669952 1 0 0 
137 3 1 -1.00000000 129.10000610 301.28061676 -21.96845818 21.47677231 1 0 0 
138 3 2 1.00000000 128.19999695 300.76138306 -25.69530678 21.39984512 1 0 0 
139 3 1 -1.00000000 129.10000610 297.81620026 -27.02085876 23.55439377 1 0 0 
140 3 1 -1.00000000 129.10000610 296.48997498 -30.49531937 22.67101669 1 0 0 
141 3 1 -1.00000000 129.10000610 294.48044586 -33.48648071 21.38535881 1 0 0 
142 3 2 1.00000000 128.19999695 295.29518890 -36.78665161 23.10945892 1 0 0 
143 3 1 -1.00000000 129.10000610 294.81079102 -39.57893753 25.77699280 1 0 0 
144 3 2 1.00000000 128.19999695 296.39528656 -41.65106201 28.74867249 1 0 0 
145 3 2 1.00000000 128.19999695 296.62025452 -45.67797470 27.86861229 1 0 0 
146 3 2 1.00000000 128.19999695 293.90727997 -47.21268082 25.60711670 1 0 0 
147 3 1 -1.00000000 129.10000610 291.91898346 -50.27610016 24.73637199 1 0 0 
148 3 2 1.00000000 128.19999695 289.25836182 -52.64081573 25.44206238 1 0 0 
149 3 1 -1.00000000 129.10000610 286.11439514 -55.04541397 25.80708885 1 0 0 
150 3 2 1.00000000 128.19999695 282.76914978 -56.07803345 27.42874908 1 0 0 
151 4 2 1.00000000 128.19999695 -289.77407837 255.80941772 6.31331873 -1 1 0 
152 4 1 -1.00000000 129.10000610 -290.83234406 257.90172577 9.28994370 -1 1 0 
153 4 2 1.00000000 128.19999695 -293.02041626 261.03158951 8.74933434 -1 1 0 
154 4 2 1.00000000 128.19999695 -292.76659393 263.23484421 5.89064550 -1 1 0 
155 4 2 1.00000000 128.19999695 -290.66919708 261.42043304 3.26944041 -1 1 0 
156 4 1 -1.00000000 129.10000610 -288.74127197 263.99320602 1.46968627 -1 1 0 
157 4 2 1.00000000 128.19999695 -285.11678314 263.99758530 2.12258935 -1 1 0 
158 4 1 -1.00000000 129.10000610 -282.81553650 261.70898056 4.07644320 -1 1 0 
159 4 1 -1.00000000 129.10000610 -280.85374451 260.76988983 7.45971537 -1 1 0 
160 4 1 -1.00000000 129.10000610 -283.82086182 260.69990540 9.83960056 -1 1 0 
161 4 2 1.00000000 128.19999695 -286.48576355 263.00264740 11.61384010 -1 1 0 
162 4 1 -1.00000000 129.10000610 -286.98941803 266.09358215 10.27807140 -1 1 0 
163 4 1 -1.00000000 129.10000610 -287.20537567 269.30929947 12.08322144 -1 1 0 
164 4 1 -1.00000000 129.10000610 -289.08647156 268.97075653 15.37323666 -1 1 0 
165 4 2 1.00000000 128.19999695 -289.64879608 271.33717728 18.02316475 -1 1 0 
166 4 2 1.00000000 128.19999695 -288.02088165 273.81546021 20.56767464 -1 1 0 
167 4 1 -1.00000000 129.10000610 -288.57630157 276.47138214 23.24406052 -1 1 0 
168 4 1 -1.00000000 129.10000610 -291.99817657 275.01912689 24.28306389 -1 1 0 
169 4 2 1.00000000 128.19999695 -295.18406677 274.18101501 22.50074005 -1 1 0 
170 4 1 -1.00000000 129.10000610 -298.40579224 272.13808441 21.47643471 -1 1 0 
171 4 1 -1.00000000 129.10000610 -299.52782440 268.74456787 20.15972137 -1 1 0 
172 4 1 -1.00000000 129.10000610 -301.49021149 266.84579086 22.48860168 -1 1 0 
173 4 2 1.00000000 128.19999695 -303.64720154 265.01027298 24.97797775 -1 1 0 
174 4 1 -1.00000000 129.10000610 -301.09410095 261.98199463 25.10587502 -1 1 0 
175 4 1 -1.00000000 129.10000610 -298.63620758 259.94697952 23.75476074 -1 1 0 
176 4 2 1.00000000 128.19999695 -297.43084717 258.65064240 20.35632133 -1 1 0 
177 4 2 1.00000000 128.19999695 -296.49329376 261.70435333 18.88887024 -1 1 0 
178 4 2 1.00000000 128.19999695 -294.68753052 265.20673370 18.69003105 -1 1 0 
179 4 2 1.00000000 128.19999695 -294.24958038 266.21406555 15.43671513 -1 1 0 
180 4 2 1.00000000 128.19999695 -296.68994141 268.67488480 13.82800579 -1 1 0 
181 4 1 -1.00000000 129.10000610 -299.24737549 266.34093475 12.02810192 -1 1 0 
182 4 1 -1.00000000 129.10000610 -302.91041565 267.12071228 11.24106503 -1 1 0 
183 4 1 -1.00000000 129.10000610 -305.46396637 268.68860626 13.35218334 -1 1 0 
184 4 2 1.00000000 128.19999695 -306.59069061 267.43384552 16.77720833 -1 1 0 
185 4 2 1.00000000 128.19999695 -306.93666840 269.50761032 19.94007683 -1 1 0 
186 4 2 1.00000000 128.19999695 -308.82118225 272.85543060 19.52910995 -1 1 0 
187 4 1 -1.00000000 129.10000610 -309.20011902 275.21232605 22.48427582 -1 1 0 
188 4 2 1.00000000 128.19999695 -306.35723114 277.44426727 23.16335106 -1 1 0 
189 4 1 -1.00000000 129.10000610 -303.54666138 276.81142426 25.51688576 -1 1 0 
190 4 1 -1.00000000 129.10000610 -303.18487549 278.13539886 28.90243340 -1 1 0 
191 4 1 -1.00000000 129.10000610 -305.19252777 280.87136841 30.41338730 -1 1 0 
192 4 2 1.00000000 128.19999695 -308.89523315 280.12760925 29.78846550 -1 1 0 
193 4 1 -1.00000000 129.10000610 -311.82580566 279.18365479 31.66924858 -2 1 0 
194 4 2 1.00000000 128.19999695 -314.33563995 282.15190125 33.02412796 -2 1 0 
195 4 2 1.00000000 128.19999695 -313.59014893 285.35852814 34.61521149 -2 1 0 
196 4 2 1.00000000 128.19999695 -313.35076141 287.87310791 37.37579346 -2 1 0 
197 4 1 -1.00000000 129.10000610 -315.49066162 291.01165771 38.36352539 -2 1 0 
198 4 2 1.00000000 128.19999695 -316.70880127 294.57138824 39.04521561 -2 1 0 
199 4 1 -1.00000000 129.10000610 -319.62634277 295.94726562 37.10338974 -2 1 0 
200 4 2 1.00000000 128.19999695 -319.85794067 299.26696014 34.99937057 -2 1 0 
201 5 2 1.00000000 128.19999695 -307.33423615 -184.88866425 -140.45336151 -1 -1 -1 
202 5 1 -1.00000000 129.10000610 -309.34499359 -183.45853424 -137.51340485 -1 -1 -1 
203 5 2 1.00000000 128.19999695 -313.02831268 -183.27805519 -137.35065460 -2 -1 -1 
204 5 2 1.00000000 128.19999695 -314.89649963 -183.33009148 -140.90455627 -2 -1 -1 
205 5 2 1.00000000 128.19999695 -316.94686890 -184.96738625 -143.77342224 -2 -1 -1 
206 5 1 -1.00000000 129.10000610 -319.59166718 -183.29804230 -145.78588867 -2 -1 -1 
207 5 2 1.00000000 128.19999695 -320.69221497 -181.76975441 -149.08261490 -2 -1 -1 
208 5 1 -1.00000000 129.10000610 -318.42459869 -180.20713425 -151.48669052 -2 -1 -1 
209 5 1 -1.00000000 129.10000610 -315.11002350 -181.72828674 -151.02521133 -2 -1 -1 
210 5 1 -1.00000000 129.10000610 -312.94887543 -180.09828758 -148.06200409 -2 -1 -1 
211 5 2 1.00000000 128.19999695 -313.95526886 -176.13449097 -147.48208618 -2 -1 -1 
212 5 1 -1.00000000 129.10000610 -310.45104218 -175.51379204 -145.96208191 -1 -1 -1 
213 5 1 -1.00000000 129.10000610 -309.09291077 -176.47476196 -142.88850403 -1 -1 -1 
214 5 1 -1.00000000 129.10000610 -310.23741913 -174.52962875 -139.80126190 -1 -1 -1 
215 5 2 1.00000000 128.19999695 -310.78983307 -170.96777344 -138.43521881 -1 -1 -1 
216 5 2 1.00000000 128.19999695 -311.55275726 -170.30372238 -134.68291473 -2 -1 -1 
217 5 1 -1.00000000 129.10000610 -314.84877014 -171.31120682 -132.76384735 -2 -1 -1 
218 5 1 -1.00000000 129.10000610 -317.05578613 -173.03750992 -135.24899292 -2 -1 -1 
219 5 2 1.00000000 128.19999695 -319.47881317 -175.22947693 -137.28157806 -2 -1 -1 
220 5 1 -1.00000000 129.10000610 -320.02474213 -178.62507820 -136.08956909 -2 -1 -1 
221 5 1 -1.00000000 129.10000610 -319.73899841 -182.34392548 -136.41464233 -2 -1 -1 
222 5 1 -1.00000000 129.10000610 -319.33470917 -185.44545174 -134.01606750 -2 -1 -1 
223 5 2 1.00000000 128.19999695 -318.29093170 -184.13686371 -130.66616058 -2 -1 -1 
224 5 1 -1.00000000 129.10000610 -314.59265900 -182.87678146 -130.07577515 -2 -1 -1 
225 5 1 -1.00000000 129.10000610 -312.78046417 -185.96993637 -130.80005646 -2 -1 -1 
226 5 2 1.00000000 128.19999695 -311.73520660 -188.79410744 -133.18281555 -2 -1 -1 
227 5 2 1.00000000 128.19999695 -314.15184784 -190.99909401 -134.82333374 -2 -1 -1 
228 5 2 1.00000000 128.19999695 -317.07513428 -192.24603462 -137.48365021 -2 -1 -1 
229 5 2 1.00000000 128.19999695 -315.79322052 -193.83705997 -140.84801483 -2 -1 -1 
230 5 2 1.00000000 128.19999695 -317.89433289 -195.51953983 -143.08294678 -2 -1 -1 
231 5 1 -1.00000000 129.10000610 -317.38242340 -195.87761688 -146.68827820 -2 -1 -1 
232 5 1 -1.00000000 129.10000610 -316.63828278 -193.04905796 -148.82961655 -2 -1 -1 
233 5 1 -1.00000000 129.10000610 -314.09010315 -190.07434654 -147.89649200 -2 -1 -1 
234 5 2 1.00000000 128.19999695 -310.79302979 -187.95911407 -148.82450867 -1 -1 -1 
235 5 2 1.00000000 128.19999695 -307.36492157 -187.88376617 -147.88482285 -1 -1 -1 
236 5 2 1.00000000 128.19999695 -304.30341339 -186.11532974 -149.84780121 -1 -1 -1 
237 5 1 -1.00000000 129.10000610 -303.31097412 -182.77944183 -150.05516434 -1 -1 -1 
238 5 2 1.00000000 128.19999695 -303.70551300 -180.73449135 -146.78834915 -1 -1 -1 
239 5 1 -1.00000000 129.10000610 -304.37326813 -177.18652344 -146.52211380 -1 -1 -1 
240 5 1 -1.00000000 129.10000610 -303.28887939 -174.82830429 -149.60980225 -1 -1 -1 
241 5 1 -1.00000000 129.10000610 -305.83811951 -173.09008789 -152.32638550 -1 -1 -1 
242 5 2 1.00000000 128.19999695 -308.66341400 -172.22046661 -154.89524460 -1 -1 -1 
243 5 1 -1.00000000 129.10000610 -308.68441010 -170.60459518 -158.12244797 -1 -1 -1 
244 5 2 1.00000000 128.19999695 -311.43491364 -171.40924454 -160.58005142 -2 -1 -1 
245 5 2 1.00000000 128.19999695 -315.27600861 -171.26255035 -159.22118759 -2 -1 -1 
246 5 2 1.00000000 128.19999695 -316.08175659 -168.09979248 -157.10756302 -2 -1 -1 
247 5 1 -1.00000000 129.10000610 -314.03771973 -165.85196304 -154.83938599 -2 -1 -1 
248 5 2 1.00000000 128.19999695 -311.22377014 -165.11485672 -152.76647186 -2 -1 -1 
249 5 1 -1.00000000 129.10000610 -307.92428589 -163.83218002 -152.62048721 -1 -1 -1 
250 5 2 1.00000000 128.19999695 -304.63097382 -162.65451050 -151.82049561 -1 -1 -1 
251 6 2 1.00000000 128.19999695 348.87841034 -395.15918350 -62.91581345 2 -2 0 
252 6 1 -1.00000000 129.10000610 352.45218277 -394.81971550 -63.31171036 2 -2 0 
253 6 2 1.00000000 128.19999695 354.08545685 -393.55533600 -66.54264069 2 -2 0 
254 6 2 1.00000000 128.19999695 356.62559509 -396.26955605 -67.97043610 2 -2 0 
255 6 2 1.00000000 128.19999695 359.34204102 -398.77311230 -68.31735992 2 -2 0 
256 6 1 -1.00000000 129.10000610 362.76061249 -398.58816719 -67.43963623 2 -2 0 
257 6 2 1.00000000 128.19999695 363.75666046 -402.31992817 -66.39017487 2 -2 0 
258 6 1 -1.00000000 129.10000610 365.89531708 -403.03194809 -69.54513550 2 -2 0 
259 6 1 -1.00000000 129.10000610 368.92018127 -405.24750900 -68.90215302 2 -2 0 
260 6 1 -1.00000000 129.10000610 369.65287399 -406.41153812 -65.32723999 2 -2 0 
261 6 2 1.00000000 128.19999695 367.61099243 -406.77004576 -62.15819168 2 -2 0 
262 6 1 -1.00000000 129.10000610 364.71764374 -405.69982910 -60.30208206 2 -2 0 
263 6 1 -1.00000000 129.10000610 361.23392105 -404.74828434 -59.66030121 2 -2 0 
264 6 1 -1.00000000 129.10000610 357.65938187 -403.91427422 -57.96825027 2 -2 0 
265 6 2 1.00000000 128.19999695 356.25400925 -407.58142567 -57.57807159 2 -2 0 
266 6 2 1.00000000 128.19999695 354.58351135 -410.52122498 -56.36363983 2 -2 0 
267 6 1 -1.00000000 129.10000610 353.48640442 -409.95818853 -52.47895813 2 -2 0 
268 6 1 -1.00000000 129.10000610 355.69320679 -407.87695694 -49.86621094 2 -2 0 
269 6 2 1.00000000 128.19999695 359.14607620 -407.35486937 -50.51874161 2 -2 0 
270 6 1 -1.00000000 129.10000610 361.87062073 -409.05691242 -52.59455490 2 -2 0 
271 6 1 -1.00000000 129.10000610 364.92705917 -409.05925417 -55.12083817 2 -2 0 
272 6 1 -1.00000000 129.10000610 363.83287430 -411.15953112 -58.24465561 2 -2 0 
273 6 2 1.00000000 128.19999695 366.56214523 -413.26154852 -59.76330566 2 -2 0 
274 6 1 -1.00000000 129.10000610 366.11140060 -414.24375018 -63.16978836 2 -2 0 
275 6 1 -1.00000000 129.10000610 366.98048019 -411.93602443 -66.36379242 2 -2 0 
276 6 2 1.00000000 128.19999695 370.05121994 -412.10710788 -68.58423615 2 -2 0 
277 6 2 1.00000000 128.19999695 371.40488052 -413.69660580 -71.76931763 2 -2 0 
278 6 2 1.00000000 128.19999695 373.14134979 -415.97380006 -74.57352448 2 -2 0 
279 6 2 1.00000000 128.19999695 371.02632904 -417.56479597 -77.52050018 2 -2 0 
280 6 2 1.00000000 128.19999695 368.16479874 -418.25571108 -79.85176086 2 -2 0 
281 6 1 -1.00000000 129.10000610 365.91746140 -415.31628841 -79.75804901 2 -2 0 
282 6 1 -1.00000000 129.10000610 364.54897690 -413.17515755 -77.10060883 2 -2 0 
283 6 1 -1.00000000 129.10000610 362.77470016 -412.59414387 -73.50201416 2 -2 0 
284 6 2 1.00000000 128.19999695 363.19414520 -408.96306849 -73.09069061 2 -2 0 
285 6 2 1.00000000 128.19999695 360.57582092 -406.45129299 -73.30847931 2 -2 0 
286 6 2 1.00000000 128.19999695 357.96032333 -406.07783508 -75.80455017 2 -2 0 
287 6 1 -1.00000000 129.10000610 354.87316132 -403.91864491 -74.61197662 2 -2 0 
288 6 2 1.00000000 128.19999695 352.60525131 -404.23248672 -71.48410797 2 -2 0 
289 6 1 -1.00000000 129.10000610 353.38189316 -401.46408463 -68.99356079 2 -2 0 
290 6 1 -1.00000000 129.10000610 353.73733139 -402.27056026 -65.19935608 2 -2 0 
291 6 1 -1.00000000 129.10000610 352.85310745 -402.09931087 -61.47008133 2 -2 0 
292 6 2 1.00000000 128.19999695 351.11465836 -403.35020161 -58.37203217 2 -2 0 
293 6 1 -1.00000000 129.10000610 350.41893768 -403.43939304 -54.65409851 2 -2 0 
294 6 2 1.00000000 128.19999695 350.23561859 -400.48107529 -52.48840714 2 -2 0 
295 6 2 1.00000000 128.19999695 349.99882507 -397.57276535 -50.23284912 2 -2 0 
296 6 2 1.00000000 128.19999695 351.76335144 -394.49578667 -51.24218750 2 -2 0 
297 6 1 -1.00000000 129.10000610 355.16154099 -395.36032677 -53.02488708 2 -2 0 
298 6 2 1.00000000 128.19999695 356.69280243 -398.64135742 -54.49830246 2 -2 0 
299 6 1 -1.00000000 129.10000610 358.40824127 -400.21865654 -51.63371277 2 -2 0 
300 6 2 1.00000000 128.19999695 361.16098785 -398.99930096 -49.22722626 2 -2 0 
301 7 2 1.00000000 128.19999695 -98.24210358 -75.00459290 -936.32554626 0 0 -5 
302 7 1 -1.00000000 129.10000610 -95.55652618 -72.64209747 -934.49244690 0 0 -5 
303 7 2 1.00000000 128.19999695 -96.40760803 -69.07214355 -936.19528198 0 0 -5 
304 7 2 1.00000000 128.19999695 -98.09159851 -65.57760620 -936.59487915 0 0 -5 
305 7 2 1.00000000 128.19999695 -100.90441132 -63.37265396 -936.58369446 0 0 -5 
306 7 1 -1.00000000 129.10000610 -102.76992035 -61.83603668 -939.72850800 0 0 -5 
307 7 2 1.00000000 128.19999695 -106.63668823 -61.92089462 -940.10230255 -1 0 -5 
308 7 1 -1.00000000 129.10000610 -108.50079346 -64.55508423 -941.92637634 -1 0 -5 
309 7 1 -1.00000000 129.10000610 -111.03623199 -66.92866516 -941.03792572 -1 0 -5 
310 7 1 -1.00000000 129.10000610 -113.38323975 -66.66224670 -938.10469818 -1 0 -5 
311 7 2 1.00000000 128.19999695 -115.39282990 -63.70334625 -939.37014008 -1 0 -5 
312 7 1 -1.00000000 129.10000610 -114.26143646 -60.10596085 -940.76155090 -1 0 -5 
313 7 1 -1.00000000 129.10000610 -111.39568329 -57.54892731 -941.03264618 -1 0 -5 
314 7 1 -1.00000000 129.10000610 -108.14907074 -56.04437256 -942.20537567 -1 0 -5 
315 7 2 1.00000000 128.19999695 -104.44792175 -55.72011566 -942.93255615 -1 0 -5 
316 7 2 1.00000000 128.19999695 -103.11386871 -52.87480545 -945.43571472 0 0 -5 
317 7 1 -1.00000000 129.10000610 -105.50048065 -50.43436813 -946.72935486 -1 0 -5 
318 7 1 -1.00000000 129.10000610 -104.81276703 -47.35733795 -944.62567139 -1 0 -5 
319 7 2 1.00000000 128.19999695 -101.99977875 -45.22030258 -943.82199860 0 0 -5 
320 7 1 -1.00000000 129.10000610 -102.77059937 -41.67897415 -942.56837463 0 0 -5 
321 7 1 -1.00000000 129.10000610 -104.85324097 -40.38310242 -939.71343231 -1 0 -5 
322 7 1 -1.00000000 129.10000610 -108.15328979 -42.36368561 -939.55168152 -1 0 -5 
323 7 2 1.00000000 128.19999695 -109.85285187 -44.49295425 -936.87549591 -1 0 -5 
324 7 1 -1.00000000 129.10000610 -113.06015015 -45.36418533 -938.88288116 -1 0 -5 
325 7 1 -1.00000000 129.10000610 -115.11986542 -48.33675385 -938.34637451 -1 0 -5 
326 7 2 1.00000000 128.19999695 -116.15360260 -51.93529892 -937.85927582 -1 0 -5 
327 7 2 1.00000000 128.19999695 -119.16145325 -53.94386292 -939.32685089 -1 0 -5 
328 7 2 1.00000000 128.19999695 -121.74861145 -56.29757309 -940.39704132 -1 0 -5 
329 7 2 1.00000000 128.19999695 -121.63875580 -59.14793777 -942.54499054 -1 0 -5 
330 7 2 1.00000000 128.19999695 -122.17624664 -62.79219055 -941.52979279 -1 0 -5 
331 7 1 -1.00000000 129.10000610 -121.74388123 -65.87599182 -939.69331360 -1 0 -5 
332 7 1 -1.00000000 129.10000610 -120.21926117 -68.01070404 -937.17088318 -1 0 -5 
333 7 1 -1.00000000 129.10000610 -120.22578430 -71.64865112 -937.60824585 -1 0 -5 
334 7 2 1.00000000 128.19999695 -122.29992676 -74.80536652 -936.22736359 -1 0 -5 
335 7 2 1.00000000 128.19999695 -124.94808197 -77.19731140 -936.13863373 -1 0 -5 
336 7 2 1.00000000 128.19999695 -128.09189606 -78.94054413 -935.07196045 -1 0 -5 
337 7 1 -1.00000000 129.10000610 -129.97523499 -77.93492889 -931.85552216 -1 0 -4 
338 7 2 1.00000000 128.19999695 -133.21172333 -79.21517181 -930.45098114 -1 0 -4 
339 7 1 -1.00000000 129.10000610 -137.02863312 -79.30980682 -930.18521881 -1 0 -4 
340 7 1 -1.00000000 129.10000610 -140.22618866 -77.86632538 -931.44351959 -1 0 -4 
341 7 1 -1.00000000 129.10000610 -141.08740997 -75.47216797 -933.65965271 -1 0 -5 
342 7 2 1.00000000 128.19999695 -143.94392395 -74.69242859 -936.11164093 -1 0 -5 
343 7 1 -1.00000000 129.10000610 -146.72957993 -76.03025055 -938.39243317 -1 0 -5 
344 7 2 1.00000000 128.19999695 -146.46153641 -74.27303314 -941.89514160 -1 0 -5 
345 7 2 1.00000000 128.19999695 -149.47002411 -73.02045441 -944.37326813 -1 0 -5 
346 7 2 1.00000000 128.19999695 -151.92747116 -76.22335052 -943.73478699 -1 0 -5 
347 7 1 -1.00000000 129.10000610 -152.14344025 -79.53232574 -941.76015472 -1 0 -5 
348 7 2 1.00000000 128.19999695 -152.27084732 -80.54370117 -938.28382111 -1 0 -5 
349 7 1 -1.00000000 129.10000610 -155.48611450 -78.97158051 -936.65407562 -1 0 -5 
350 7 2 1.00000000 128.19999695 -158.46366882 -80.23606110 -938.70192719 -1 0 -5 
351 8 2 1.00000000 128.19999695 39.09628677 -94.84006500 581.93236923 0 0 3 
352 8 1 -1.00000000 129.10000610 41.61117935 -97.41533661 583.22281647 0 0 3 
353 8 2 1.00000000 128.19999695 45.39648056 -96.83917236 582.92901230 0 0 3 
354 8 2 1.00000000 128.19999695 46.95536423 -97.29420471 586.18123627 0 0 3 
355 8 2 1.00000000 128.19999695 47.26177979 -98.49620056 589.87519455 0 0 3 
356 8 1 -1.00000000 129.10000610 47.60459137 -98.35832977 593.55988693 0 0 3 
357 8 2 1.00000000 128.19999695 47.22472763 -94.98592377 594.66646957 0 0 3 
358 8 1 -1.00000000 129.10000610 49.97019577 -92.90363312 595.86274338 0 0 3 
359 8 1 -1.00000000 129.10000610 51.76268768 -89.89010620 598.21036339 0 0 3 
360 8 1 -1.00000000 129.10000610 54.61012650 -86.99712372 598.54576492 0 0 3 
361 8 2 1.00000000 128.19999695 58.07546997 -85.83084106 598.10247993 0 0 3 
362 8 1 -1.00000000 129.10000610 59.60475922 -84.23014832 594.97719193 0 0 3 
363 8 1 -1.00000000 129.10000610 60.43214798 -80.55425262 596.25961304 0 0 3 
364 8 1 -1.00000000 129.10000610 63.00192642 -77.94975281 595.39692116 0 0 3 
365 8 2 1.00000000 128.19999695 66.21701050 -78.50492096 593.21612358 0 0 3 
366 8 2 1.00000000 128.19999695 66.07221222 -76.53252411 590.10580826 0 0 3 
367 8 1 -1.00000000 129.10000610 69.32804871 -76.58940125 588.02070999 0 0 3 
368 8 1 -1.00000000 129.10000610 69.01837921 -79.98663330 586.29029083 0 0 3 
369 8 2 1.00000000 128.19999695 71.09612274 -83.65564728 586.33603668 0 0 3 
370 8 1 -1.00000000 129.10000610 72.42818451 -84.58502197 589.94961929 0 0 3 
371 8 1 -1.00000000 129.10000610 73.05884552 -85.71607971 593.61758614 0 0 3 
372 8 1 -1.00000000 129.10000610 72.38131714 -82.58192444 595.59640884 0 0 3 