ITEM: TIMESTEP
44600000 
ITEM: NUMBER OF ATOMS 
25000 
ITEM: BOX BOUNDS pp pp pp 
-103.678017 103.678017 
-103.678017 103.678017 
-103.678017 103.678017 
ITEM: ATOMS id mol type q mass xu yu zu ix iy iz 
1 1 2 1.00000000 128.19999695 606.72887230 -203.33736372 -220.60566044 3 -1 -1 
2 1 1 -1.00000000 129.10000610 603.46694565 -201.29660225 -219.57219315 3 -1 -1 
3 1 2 1.00000000 128.19999695 603.96273994 -199.04529572 -216.04712772 3 -1 -1 
4 1 2 1.00000000 128.19999695 604.21090317 -195.27449512 -216.79209614 3 -1 -1 
5 1 2 1.00000000 128.19999695 602.19302559 -191.96233273 -215.87913227 3 -1 -1 
6 1 1 -1.00000000 129.10000610 603.23945999 -188.32123947 -216.18215847 3 -1 -1 
7 1 2 1.00000000 128.19999695 600.67203903 -185.57027817 -216.29253864 3 -1 -1 
8 1 1 -1.00000000 129.10000610 597.12848282 -186.51435280 -217.05191231 3 -1 -1 
9 1 1 -1.00000000 129.10000610 593.70737076 -188.00487137 -216.67476749 3 -1 -1 
10 1 1 -1.00000000 129.10000610 590.90147209 -187.34690285 -219.61743641 3 -1 -1 
11 1 2 1.00000000 128.19999695 587.07756424 -187.33321953 -220.64359856 3 -1 -1 
12 1 1 -1.00000000 129.10000610 586.45138931 -190.15073395 -218.32946968 3 -1 -1 
13 1 1 -1.00000000 129.10000610 584.70734406 -193.74399185 -218.49353123 3 -1 -1 
14 1 1 -1.00000000 129.10000610 581.96070862 -196.19705772 -218.65851212 3 -1 -1 
15 1 2 1.00000000 128.19999695 580.73884964 -199.52401352 -219.56833839 3 -1 -1 
16 1 2 1.00000000 128.19999695 580.12768936 -200.51454544 -223.10605621 3 -1 -1 
17 1 1 -1.00000000 129.10000610 577.93133163 -198.98017883 -225.98727798 3 -1 -1 
18 1 1 -1.00000000 129.10000610 574.28332520 -198.45249748 -225.29267883 3 -1 -1 
19 1 2 1.00000000 128.19999695 570.69480896 -197.52162266 -224.33234596 3 -1 -1 
20 1 1 -1.00000000 129.10000610 567.86323547 -199.04463005 -222.60479832 3 -1 -1 
21 1 1 -1.00000000 129.10000610 564.12817764 -198.83955860 -223.41736603 3 -1 -1 
22 1 1 -1.00000000 129.10000610 561.73900223 -201.31347370 -225.10385323 3 -1 -1 
23 1 2 1.00000000 128.19999695 558.91593170 -198.96431446 -226.53309250 3 -1 -1 
24 1 1 -1.00000000 129.10000610 560.96840668 -198.10908890 -229.99750328 3 -1 -1 
25 1 1 -1.00000000 129.10000610 564.30873108 -198.50073528 -231.64707947 3 -1 -1 
26 1 2 1.00000000 128.19999695 567.01089096 -196.08125687 -230.63098526 3 -1 -1 
27 1 2 1.00000000 128.19999695 565.92196655 -193.08243465 -228.45595169 3 -1 -1 
28 1 2 1.00000000 128.19999695 562.23395157 -192.44501209 -226.71034431 3 -1 -1 
29 1 2 1.00000000 128.19999695 559.07702637 -191.71458435 -228.46573257 3 -1 -1 
30 1 2 1.00000000 128.19999695 557.24842834 -190.14855194 -231.29528809 3 -1 -1 
31 1 1 -1.00000000 129.10000610 556.69880676 -186.18355179 -230.67441940 3 -1 -1 
32 1 1 -1.00000000 129.10000610 554.40640259 -184.71479225 -233.38915825 3 -1 -1 
33 1 1 -1.00000000 129.10000610 552.24374390 -187.32987404 -235.27240372 3 -1 -1 
34 1 2 1.00000000 128.19999695 550.33894348 -189.30375481 -237.64764214 3 -1 -1 
35 1 2 1.00000000 128.19999695 553.18830109 -190.08743668 -240.07788467 3 -1 -1 
36 1 2 1.00000000 128.19999695 553.58339691 -191.73193645 -243.78799820 3 -1 -1 
37 1 1 -1.00000000 129.10000610 556.61635590 -193.97321224 -244.07611847 3 -1 -1 
38 1 2 1.00000000 128.19999695 558.05844879 -193.31055832 -247.45850372 3 -1 -1 
39 1 1 -1.00000000 129.10000610 556.47006226 -192.23043156 -250.47494507 3 -1 -1 
40 1 1 -1.00000000 129.10000610 553.84421539 -189.37671852 -249.78415298 3 -1 -1 
41 1 1 -1.00000000 129.10000610 550.08380890 -188.78121567 -249.76304245 3 -1 -1 
42 1 2 1.00000000 128.19999695 546.69395447 -187.75100708 -251.43910980 3 -1 -1 
43 1 1 -1.00000000 129.10000610 545.12422943 -191.32693672 -252.48973846 3 -1 -1 
44 1 2 1.00000000 128.19999695 546.12251282 -193.87117290 -249.59991837 3 -1 -1 
45 1 2 1.00000000 128.19999695 547.32765961 -197.65592670 -249.97275925 3 -1 -1 
46 1 2 1.00000000 128.19999695 549.94219208 -200.22649336 -249.74240875 3 -1 -1 
47 1 1 -1.00000000 129.10000610 551.92258453 -200.82200146 -246.64641953 3 -1 -1 
48 1 2 1.00000000 128.19999695 555.19129181 -202.63844442 -247.61797714 3 -1 -1 
49 1 1 -1.00000000 129.10000610 557.42845917 -200.01739645 -248.65722275 3 -1 -1 
50 1 2 1.00000000 128.19999695 559.76742554 -199.35038471 -251.70071030 3 -1 -1 
51 2 2 1.00000000 128.19999695 567.16536331 337.06673431 -268.96206284 3 2 -1 
52 2 1 -1.00000000 129.10000610 570.26578903 338.61554718 -270.60537720 3 2 -1 
53 2 2 1.00000000 128.19999695 573.11569214 340.87586975 -270.35845184 3 2 -1 
54 2 2 1.00000000 128.19999695 576.47769165 338.95716095 -269.55370331 3 2 -1 
55 2 2 1.00000000 128.19999695 577.94556046 335.37744141 -269.41160202 3 2 -1 
56 2 1 -1.00000000 129.10000610 575.36802292 332.53543091 -269.01919937 3 2 -1 
57 2 2 1.00000000 128.19999695 575.68438721 328.88885498 -269.84840775 3 2 -1 
58 2 1 -1.00000000 129.10000610 579.48463440 328.07656860 -270.62664032 3 2 -1 
59 2 1 -1.00000000 129.10000610 581.78435516 329.95629883 -272.74800110 3 2 -1 
60 2 1 -1.00000000 129.10000610 580.33628464 329.81576538 -276.25457001 3 2 -1 
61 2 2 1.00000000 128.19999695 576.63818741 329.73809052 -277.18326569 3 2 -1 
62 2 1 -1.00000000 129.10000610 574.56315231 326.81531525 -278.30905151 3 2 -1 
63 2 1 -1.00000000 129.10000610 571.15265274 326.27436066 -279.87855530 3 2 -1 
64 2 1 -1.00000000 129.10000610 568.14060593 326.52795410 -281.78951263 3 2 -1 
65 2 2 1.00000000 128.19999695 565.06694412 324.39796448 -282.81624603 3 2 -1 
66 2 2 1.00000000 128.19999695 565.29404068 322.25282288 -286.04624176 3 2 -1 
67 2 1 -1.00000000 129.10000610 566.13045883 318.90567780 -286.68392181 3 2 -1 
68 2 1 -1.00000000 129.10000610 567.00826645 316.97583008 -283.86183929 3 2 -1 
69 2 2 1.00000000 128.19999695 566.10576630 316.89736176 -280.38033295 3 2 -1 
70 2 1 -1.00000000 129.10000610 562.50838089 315.75668335 -279.43263245 3 2 -1 
71 2 1 -1.00000000 129.10000610 559.98946762 318.00334167 -278.46373749 3 2 -1 
72 2 1 -1.00000000 129.10000610 557.43344116 316.02030945 -276.29353333 3 2 -1 
73 2 2 1.00000000 128.19999695 557.65145874 313.36743927 -273.59029388 3 2 -1 
74 2 1 -1.00000000 129.10000610 556.77906799 311.40111542 -270.48398590 3 2 -1 
75 2 1 -1.00000000 129.10000610 556.26745605 307.84429169 -270.35057068 3 1 -1 
76 2 2 1.00000000 128.19999695 559.03138733 305.78144073 -268.22468185 3 1 -1 
77 2 2 1.00000000 128.19999695 558.49057388 305.18687439 -264.53998184 3 1 -1 
78 2 2 1.00000000 128.19999695 560.54961014 303.07279968 -262.13567734 3 1 -1 
79 2 2 1.00000000 128.19999695 562.94607162 300.81007385 -263.83083725 3 1 -1 
80 2 2 1.00000000 128.19999695 562.96094894 300.99108887 -267.57637405 3 1 -1 
81 2 1 -1.00000000 129.10000610 564.24313736 298.53592682 -270.11982727 3 1 -1 
82 2 1 -1.00000000 129.10000610 566.48090744 295.44126892 -269.33879852 3 1 -1 
83 2 1 -1.00000000 129.10000610 565.20563507 291.93080139 -268.83313370 3 1 -1 
84 2 2 1.00000000 128.19999695 564.33780289 289.01801300 -266.30682755 3 1 -1 
85 2 2 1.00000000 128.19999695 562.81754684 286.02405548 -264.79895401 3 1 -1 
86 2 2 1.00000000 128.19999695 565.21659851 282.84582520 -264.66625977 3 1 -1 
87 2 1 -1.00000000 129.10000610 566.68037796 280.96810150 -261.56406784 3 1 -1 
88 2 2 1.00000000 128.19999695 567.82208633 283.28986359 -258.93196487 3 1 -1 
89 2 1 -1.00000000 129.10000610 568.23021698 286.69693756 -258.06488037 3 1 -1 
90 2 1 -1.00000000 129.10000610 567.10292053 289.67619324 -255.79548645 3 1 -1 
91 2 1 -1.00000000 129.10000610 566.73379135 293.06330109 -257.46197128 3 1 -1 
92 2 2 1.00000000 128.19999695 566.11779022 295.72215271 -260.42498016 3 1 -1 
93 2 1 -1.00000000 129.10000610 569.00237274 297.57452393 -262.81008530 3 1 -1 
94 2 2 1.00000000 128.19999695 572.58317184 296.76372528 -262.86595917 3 1 -1 
95 2 2 1.00000000 128.19999695 573.57659149 293.26521301 -261.26177216 3 1 -1 
96 2 2 1.00000000 128.19999695 573.67381287 290.08619690 -262.63145065 3 1 -1 
97 2 1 -1.00000000 129.10000610 574.12668991 286.31811523 -263.35266113 3 1 -1 
98 2 2 1.00000000 128.19999695 574.80009079 284.62493134 -260.13104248 3 1 -1 
99 2 1 -1.00000000 129.10000610 577.21590805 281.50174713 -260.03181839 3 1 -1 
100 2 2 1.00000000 128.19999695 580.91315460 280.98307037 -258.98358917 3 1 -1 
101 3 2 1.00000000 128.19999695 331.50460052 -87.11419678 68.14853668 2 0 0 
102 3 1 -1.00000000 129.10000610 333.59392548 -90.04306793 66.53963470 2 0 0 
103 3 2 1.00000000 128.19999695 335.19427490 -91.88114929 63.46762085 2 0 0 
104 3 2 1.00000000 128.19999695 337.92901611 -94.47274017 62.31764984 2 0 0 
105 3 2 1.00000000 128.19999695 338.76989746 -96.89408875 65.46901703 2 0 0 
106 3 1 -1.00000000 129.10000610 342.15545654 -95.15626526 66.83290863 2 0 0 
107 3 2 1.00000000 128.19999695 345.63290405 -96.23008728 67.42237091 2 0 0 
108 3 1 -1.00000000 129.10000610 346.88151550 -99.57322693 65.76125336 2 0 0 
109 3 1 -1.00000000 129.10000610 345.30004883 -102.52434540 63.74813843 2 0 0 
110 3 1 -1.00000000 129.10000610 346.04640961 -106.30374146 63.76367188 2 -1 0 
111 3 2 1.00000000 128.19999695 344.10157776 -109.49783325 64.40766907 2 -1 0 
112 3 1 -1.00000000 129.10000610 342.20292664 -107.90290833 67.67996979 2 -1 0 
113 3 1 -1.00000000 129.10000610 338.89688873 -109.94724274 67.69673157 2 -1 0 
114 3 1 -1.00000000 129.10000610 335.47187042 -109.68867493 69.61559296 2 -1 0 
115 3 2 1.00000000 128.19999695 333.17604828 -107.13861084 68.67249298 2 -1 0 
116 3 2 1.00000000 128.19999695 333.02569580 -103.04650879 68.46519470 2 0 0 
117 3 1 -1.00000000 129.10000610 331.12850952 -100.16879272 67.29036713 2 0 0 
118 3 1 -1.00000000 129.10000610 332.43756866 -99.32361603 64.00276184 2 0 0 
119 3 2 1.00000000 128.19999695 332.84845734 -102.60282135 61.88095093 2 0 0 
120 3 1 -1.00000000 129.10000610 334.34197998 -102.34603882 58.15176392 2 0 0 
121 3 1 -1.00000000 129.10000610 331.34417725 -103.62952423 55.48714447 2 0 0 
122 3 1 -1.00000000 129.10000610 328.31897736 -105.79494476 55.39369202 2 -1 0 
123 3 2 1.00000000 128.19999695 325.29605103 -107.93516541 54.41841507 2 -1 0 
124 3 1 -1.00000000 129.10000610 322.43659973 -108.60038757 51.86673355 2 -1 0 
125 3 1 -1.00000000 129.10000610 319.25329590 -107.89020538 50.25942612 2 -1 0 
126 3 2 1.00000000 128.19999695 318.58000946 -107.38294220 46.06230164 2 -1 0 
127 3 2 1.00000000 128.19999695 315.73297882 -104.78711700 46.75676346 2 -1 0 
128 3 2 1.00000000 128.19999695 314.30335236 -101.20029449 47.40178299 2 0 0 
129 3 2 1.00000000 128.19999695 312.36676025 -100.19425201 50.01109314 2 0 0 
130 3 2 1.00000000 128.19999695 313.12591553 -97.89437103 53.02840805 2 0 0 
131 3 1 -1.00000000 129.10000610 309.84351349 -96.07799530 53.89537430 1 0 0 
132 3 1 -1.00000000 129.10000610 306.72653961 -96.22449493 51.39624023 1 0 0 
133 3 1 -1.00000000 129.10000610 307.40627289 -95.35714722 47.84253311 1 0 0 
134 3 2 1.00000000 128.19999695 309.51950073 -92.02029419 48.68412781 1 0 0 
135 3 2 1.00000000 128.19999695 311.89501190 -89.27005768 48.42660522 2 0 0 
136 3 2 1.00000000 128.19999695 314.63224030 -86.21630859 48.28825760 2 0 0 
137 3 1 -1.00000000 129.10000610 317.86148834 -84.52434540 48.24353409 2 0 0 
138 3 2 1.00000000 128.19999695 322.06356812 -84.37438202 48.06264877 2 0 0 
139 3 1 -1.00000000 129.10000610 325.53009796 -83.26866913 47.87950516 2 0 0 
140 3 1 -1.00000000 129.10000610 327.99324036 -80.58429718 46.71780777 2 0 0 
141 3 1 -1.00000000 129.10000610 327.40760803 -77.15940094 45.53836441 2 0 0 
142 3 2 1.00000000 128.19999695 325.74215698 -75.90232086 42.68366623 2 0 0 
143 3 1 -1.00000000 129.10000610 325.48442078 -72.49744415 41.29839706 2 0 0 
144 3 2 1.00000000 128.19999695 325.07537842 -68.87358856 40.68715286 2 0 0 
145 3 2 1.00000000 128.19999695 325.70225525 -68.55996704 36.81452942 2 0 0 
146 3 2 1.00000000 128.19999695 329.67783356 -68.07944489 37.22309875 2 0 0 
147 3 1 -1.00000000 129.10000610 330.57772827 -64.42770386 35.54272842 2 0 0 
148 3 2 1.00000000 128.19999695 333.49005127 -63.18396378 34.29780197 2 0 0 
149 3 1 -1.00000000 129.10000610 335.26406097 -64.06565094 31.04341698 2 0 0 
150 3 2 1.00000000 128.19999695 338.90048218 -63.53484344 29.95130157 2 0 0 
151 4 2 1.00000000 128.19999695 -223.92991638 358.09235382 51.95309830 -1 2 0 
152 4 1 -1.00000000 129.10000610 -222.21270752 359.81774521 49.01371002 -1 2 0 
153 4 2 1.00000000 128.19999695 -222.37246227 359.46585846 45.30215073 -1 2 0 
154 4 2 1.00000000 128.19999695 -225.91301918 358.55869675 44.76961899 -1 2 0 
155 4 2 1.00000000 128.19999695 -229.13348007 357.43494415 42.85288620 -1 2 0 
156 4 1 -1.00000000 129.10000610 -232.70149231 357.35607147 43.74768448 -1 2 0 
157 4 2 1.00000000 128.19999695 -236.13470078 357.54587173 45.21704102 -1 2 0 
158 4 1 -1.00000000 129.10000610 -237.34175491 360.60187912 47.98702240 -1 2 0 
159 4 1 -1.00000000 129.10000610 -237.37405968 361.61750793 51.55780792 -1 2 0 
160 4 1 -1.00000000 129.10000610 -234.88434410 362.44145203 54.29503250 -1 2 0 
161 4 2 1.00000000 128.19999695 -232.19121933 365.48991013 52.94874954 -1 2 0 
162 4 1 -1.00000000 129.10000610 -228.55634689 365.64039230 52.80470657 -1 2 0 
163 4 1 -1.00000000 129.10000610 -226.48456764 368.72042465 52.96475220 -1 2 0 
164 4 1 -1.00000000 129.10000610 -226.93215179 372.38517761 51.82365036 -1 2 0 
165 4 2 1.00000000 128.19999695 -230.40729332 372.98078537 53.17877197 -1 2 0 
166 4 2 1.00000000 128.19999695 -231.77779961 374.16005325 56.43928528 -1 2 0 
167 4 1 -1.00000000 129.10000610 -234.95302963 371.87612534 56.99551773 -1 2 0 
168 4 1 -1.00000000 129.10000610 -238.33791733 373.49701309 55.57001495 -1 2 0 
169 4 2 1.00000000 128.19999695 -236.74947548 375.93265915 53.28993988 -1 2 0 
170 4 1 -1.00000000 129.10000610 -238.65439606 378.86303329 52.45613098 -1 2 0 
171 4 1 -1.00000000 129.10000610 -241.64138794 380.80366516 52.41955185 -1 2 0 
172 4 1 -1.00000000 129.10000610 -244.64387512 379.86254883 50.29212189 -1 2 0 
173 4 2 1.00000000 128.19999695 -248.44581604 380.35254669 51.02010727 -1 2 0 
174 4 1 -1.00000000 129.10000610 -249.54876709 377.09714890 51.82019043 -1 2 0 
175 4 1 -1.00000000 129.10000610 -252.12867737 374.05267715 51.81655121 -1 2 0 
176 4 2 1.00000000 128.19999695 -253.13661575 371.73509216 49.17148209 -1 2 0 
177 4 2 1.00000000 128.19999695 -256.76784134 371.82564926 47.60267639 -1 2 0 
178 4 2 1.00000000 128.19999695 -259.33009720 368.97943497 48.42240906 -1 2 0 
179 4 2 1.00000000 128.19999695 -259.78891373 366.06125259 46.25668716 -1 2 0 
180 4 2 1.00000000 128.19999695 -261.97659302 365.82643127 43.06252670 -1 2 0 
181 4 1 -1.00000000 129.10000610 -264.08003616 363.41360474 40.96617889 -1 2 0 
182 4 1 -1.00000000 129.10000610 -264.81061554 359.72266006 38.97821045 -1 2 0 
183 4 1 -1.00000000 129.10000610 -268.54207230 359.28780365 40.36143112 -1 2 0 
184 4 2 1.00000000 128.19999695 -271.94550323 360.71452332 40.97431564 -1 2 0 
185 4 2 1.00000000 128.19999695 -271.45731354 364.25692368 39.59400940 -1 2 0 
186 4 2 1.00000000 128.19999695 -271.61641693 367.83214188 39.03860855 -1 2 0 
187 4 1 -1.00000000 129.10000610 -269.93883133 370.12694550 41.40068054 -1 2 0 
188 4 2 1.00000000 128.19999695 -269.00062943 371.04321289 44.84182739 -1 2 0 
189 4 1 -1.00000000 129.10000610 -268.94484329 373.40897751 47.54063797 -1 2 0 
190 4 1 -1.00000000 129.10000610 -270.60802078 376.71088791 47.08440399 -1 2 0 
191 4 1 -1.00000000 129.10000610 -273.21049500 377.90768051 45.09001541 -1 2 0 
192 4 2 1.00000000 128.19999695 -275.43297577 381.23415375 44.60884857 -1 2 0 
193 4 1 -1.00000000 129.10000610 -276.42277527 383.08345604 41.48091507 -1 2 0 
194 4 2 1.00000000 128.19999695 -275.74349213 386.59163666 40.07823181 -1 2 0 
195 4 2 1.00000000 128.19999695 -275.76700592 388.87428284 36.90521240 -1 2 0 
196 4 2 1.00000000 128.19999695 -273.05076599 391.45174408 36.03315353 -1 2 0 
197 4 1 -1.00000000 129.10000610 -269.42836380 392.10892105 36.19895935 -1 2 0 
198 4 2 1.00000000 128.19999695 -265.99448395 393.07850456 36.96694565 -1 2 0 
199 4 1 -1.00000000 129.10000610 -262.26389313 392.00559807 36.23169327 -1 2 0 
200 4 2 1.00000000 128.19999695 -259.93389511 389.13769722 35.97786713 -1 2 0 
201 5 2 1.00000000 128.19999695 -251.06176758 -243.70321655 -180.03310394 -1 -1 -1 
202 5 1 -1.00000000 129.10000610 -251.15647888 -246.81145096 -182.23836327 -1 -1 -1 
203 5 2 1.00000000 128.19999695 -250.76016235 -246.96395874 -185.89483261 -1 -1 -1 
204 5 2 1.00000000 128.19999695 -252.67758179 -244.35847473 -188.26390457 -1 -1 -1 
205 5 2 1.00000000 128.19999695 -254.14822388 -244.14162827 -191.48358345 -1 -1 -1 
206 5 1 -1.00000000 129.10000610 -252.47200775 -246.39559174 -194.24673653 -1 -1 -1 
207 5 2 1.00000000 128.19999695 -253.56705093 -247.20555496 -197.78853130 -1 -1 -1 
208 5 1 -1.00000000 129.10000610 -251.71356201 -247.14181137 -201.25022745 -1 -1 -1 
209 5 1 -1.00000000 129.10000610 -249.29921341 -248.89173889 -203.32900095 -1 -1 -1 
210 5 1 -1.00000000 129.10000610 -247.00924301 -251.02744675 -201.33315945 -1 -1 -1 
211 5 2 1.00000000 128.19999695 -245.82650375 -254.08539963 -202.79001236 -1 -1 -1 
212 5 1 -1.00000000 129.10000610 -244.30799103 -257.20561218 -202.80647755 -1 -1 -1 
213 5 1 -1.00000000 129.10000610 -240.96873474 -258.64248657 -204.26040244 -1 -1 -1 
214 5 1 -1.00000000 129.10000610 -238.90314674 -256.33372879 -202.14969587 -1 -1 -1 
215 5 2 1.00000000 128.19999695 -238.82879257 -255.93750381 -198.37848759 -1 -1 -1 
216 5 2 1.00000000 128.19999695 -238.84835625 -254.04164124 -195.18266010 -1 -1 -1 
217 5 1 -1.00000000 129.10000610 -242.36647415 -254.87263870 -194.03094769 -1 -1 -1 
218 5 1 -1.00000000 129.10000610 -245.77671814 -255.97290039 -193.14727402 -1 -1 -1 
219 5 2 1.00000000 128.19999695 -249.13868713 -256.29645920 -194.56149769 -1 -1 -1 
220 5 1 -1.00000000 129.10000610 -251.61635208 -256.49547958 -191.78943253 -1 -1 -1 
221 5 1 -1.00000000 129.10000610 -254.40398788 -258.49237061 -190.75067520 -1 -1 -1 
222 5 1 -1.00000000 129.10000610 -254.49099731 -262.44192123 -190.95619774 -1 -1 -1 
223 5 2 1.00000000 128.19999695 -257.84662247 -263.60800552 -190.16439819 -1 -1 -1 
224 5 1 -1.00000000 129.10000610 -260.68968582 -264.49891663 -192.48756409 -1 -1 -1 
225 5 1 -1.00000000 129.10000610 -259.73480988 -264.02101898 -196.07346439 -1 -1 -1 
226 5 2 1.00000000 128.19999695 -258.52965546 -262.18630219 -198.77826500 -1 -1 -1 
227 5 2 1.00000000 128.19999695 -256.22850418 -260.47846603 -201.48892117 -1 -1 -1 
228 5 2 1.00000000 128.19999695 -255.33567047 -260.55908585 -205.15529275 -1 -1 -1 
229 5 2 1.00000000 128.19999695 -255.18761444 -256.52337646 -205.81516576 -1 -1 -1 
230 5 2 1.00000000 128.19999695 -253.75549316 -255.35281372 -208.92335320 -1 -1 -1 
231 5 1 -1.00000000 129.10000610 -251.77497482 -257.66471100 -210.97162127 -1 -1 -1 
232 5 1 -1.00000000 129.10000610 -252.38171005 -257.86910629 -214.86209631 -1 -1 -1 
233 5 1 -1.00000000 129.10000610 -252.81888199 -256.27522659 -218.51426220 -1 -1 -1 
234 5 2 1.00000000 128.19999695 -254.41071701 -253.45282745 -219.71328068 -1 -1 -1 
235 5 2 1.00000000 128.19999695 -254.20422363 -249.98694611 -217.90141487 -1 -1 -1 
236 5 2 1.00000000 128.19999695 -253.63008499 -249.47864914 -214.30732775 -1 -1 -1 
237 5 1 -1.00000000 129.10000610 -254.13037491 -248.37766266 -210.69402456 -1 -1 -1 
238 5 2 1.00000000 128.19999695 -255.54767609 -248.36088181 -206.77182990 -1 -1 -1 
239 5 1 -1.00000000 129.10000610 -258.97181702 -248.31639481 -205.21801662 -1 -1 -1 
240 5 1 -1.00000000 129.10000610 -261.32461929 -248.02621460 -202.85387897 -1 -1 -1 
241 5 1 -1.00000000 129.10000610 -264.29776001 -245.81765747 -202.39530611 -1 -1 -1 
242 5 2 1.00000000 128.19999695 -266.15828705 -242.70100784 -201.98019361 -1 -1 -1 
243 5 1 -1.00000000 129.10000610 -265.32435226 -241.59543991 -198.52563095 -1 -1 -1 
244 5 2 1.00000000 128.19999695 -266.46786118 -238.37463379 -197.19882870 -1 -1 -1 
245 5 2 1.00000000 128.19999695 -266.66365051 -235.35031509 -194.46125889 -1 -1 -1 
246 5 2 1.00000000 128.19999695 -264.89458084 -235.01403046 -191.20160103 -1 -1 -1 
247 5 1 -1.00000000 129.10000610 -262.27344131 -237.31100655 -189.18817329 -1 -1 -1 
248 5 2 1.00000000 128.19999695 -263.70660782 -240.48453903 -187.42101860 -1 -1 -1 
249 5 1 -1.00000000 129.10000610 -263.00836945 -242.37392044 -191.05424118 -1 -1 -1 
250 5 2 1.00000000 128.19999695 -261.59442520 -244.25020218 -194.34558105 -1 -1 -1 
251 6 2 1.00000000 128.19999695 514.92099762 -460.88833237 -67.08869171 2 -2 0 
252 6 1 -1.00000000 129.10000610 516.91632080 -461.69687653 -70.26426697 2 -2 0 
253 6 2 1.00000000 128.19999695 515.84577179 -462.98878479 -73.51519012 2 -2 0 
254 6 2 1.00000000 128.19999695 514.62091827 -465.27907562 -76.15619659 2 -2 0 
255 6 2 1.00000000 128.19999695 514.48200989 -468.76657104 -76.91717529 2 -2 0 
256 6 1 -1.00000000 129.10000610 510.76372528 -469.73058701 -76.88954163 2 -2 0 
257 6 2 1.00000000 128.19999695 507.75856781 -469.19118881 -79.24007416 2 -2 0 
258 6 1 -1.00000000 129.10000610 504.53492737 -469.40302277 -77.03340149 2 -2 0 
259 6 1 -1.00000000 129.10000610 504.62164307 -466.54061127 -74.43184662 2 -2 0 
260 6 1 -1.00000000 129.10000610 506.97265625 -464.11642075 -72.88479614 2 -2 0 
261 6 2 1.00000000 128.19999695 509.39752960 -462.59080124 -75.03723907 2 -2 0 
262 6 1 -1.00000000 129.10000610 508.97228241 -461.07159042 -78.49920654 2 -2 0 
263 6 1 -1.00000000 129.10000610 510.75811005 -460.06922150 -82.08947754 2 -2 0 
264 6 1 -1.00000000 129.10000610 514.42308044 -460.51216888 -81.13055420 2 -2 0 
265 6 2 1.00000000 128.19999695 515.96197510 -456.79991913 -82.35340881 2 -2 0 
266 6 2 1.00000000 128.19999695 519.17852020 -456.99351501 -81.53372192 3 -2 0 
267 6 1 -1.00000000 129.10000610 521.90859985 -454.03233719 -81.49874115 3 -2 0 
268 6 1 -1.00000000 129.10000610 525.29809570 -455.00356293 -82.85131836 3 -2 0 
269 6 2 1.00000000 128.19999695 527.33432770 -457.16344452 -85.29609680 3 -2 0 
270 6 1 -1.00000000 129.10000610 529.22543335 -457.37316513 -88.69665527 3 -2 0 
271 6 1 -1.00000000 129.10000610 531.91892242 -454.90666199 -89.95825958 3 -2 0 
272 6 1 -1.00000000 129.10000610 531.07019043 -452.62126160 -93.09206390 3 -2 0 
273 6 2 1.00000000 128.19999695 531.05500793 -453.15299225 -96.96581268 3 -2 0 
274 6 1 -1.00000000 129.10000610 533.40845490 -455.48316193 -98.91960907 3 -2 0 
275 6 1 -1.00000000 129.10000610 531.98087311 -459.06359863 -99.85965729 3 -2 0 
276 6 2 1.00000000 128.19999695 530.42562866 -461.58158875 -102.33568573 3 -2 0 
277 6 2 1.00000000 128.19999695 528.04756165 -464.67358780 -102.24903870 3 -2 0 
278 6 2 1.00000000 128.19999695 525.08248901 -464.30791855 -99.70124817 3 -2 0 
279 6 2 1.00000000 128.19999695 522.95845032 -465.37452698 -96.68161011 3 -2 0 
280 6 2 1.00000000 128.19999695 521.23725128 -462.18053436 -95.35079193 3 -2 0 
281 6 1 -1.00000000 129.10000610 521.97024536 -461.13311768 -92.10323334 3 -2 0 
282 6 1 -1.00000000 129.10000610 520.84217834 -458.33243179 -89.79872131 3 -2 0 
283 6 1 -1.00000000 129.10000610 517.73365784 -455.83203888 -89.67254639 2 -2 0 
284 6 2 1.00000000 128.19999695 513.75850677 -457.03066254 -89.11820984 2 -2 0 
285 6 2 1.00000000 128.19999695 511.49106598 -460.04714966 -89.30558777 2 -2 0 
286 6 2 1.00000000 128.19999695 512.61770630 -463.21133041 -91.10843658 2 -2 0 
287 6 1 -1.00000000 129.10000610 513.31989288 -466.12885666 -88.67021942 2 -2 0 
288 6 2 1.00000000 128.19999695 513.93701935 -469.82097626 -87.83094025 2 -2 0 
289 6 1 -1.00000000 129.10000610 511.32588196 -471.83637619 -88.72612000 2 -2 0 
290 6 1 -1.00000000 129.10000610 508.00836182 -470.80134964 -90.35415649 2 -2 0 
291 6 1 -1.00000000 129.10000610 506.45890808 -473.55928040 -92.70721436 2 -2 0 
292 6 2 1.00000000 128.19999695 503.95126343 -476.27048874 -91.22853851 2 -2 0 
293 6 1 -1.00000000 129.10000610 503.42692566 -477.65000916 -87.74325562 2 -2 0 
294 6 2 1.00000000 128.19999695 501.17411804 -480.63727570 -87.48144531 2 -2 0 
295 6 2 1.00000000 128.19999695 501.68641663 -484.13034821 -88.15590668 2 -2 0 
296 6 2 1.00000000 128.19999695 499.77044678 -486.77599335 -90.04155731 2 -2 0 
297 6 1 -1.00000000 129.10000610 496.06827545 -486.88186646 -90.03378296 2 -2 0 
298 6 2 1.00000000 128.19999695 492.81565857 -486.06483459 -88.09110260 2 -2 0 
299 6 1 -1.00000000 129.10000610 491.14319611 -485.67827606 -84.85868835 2 -2 0 
300 6 2 1.00000000 128.19999695 490.65642548 -483.81877136 -81.44968414 2 -2 0 
301 7 2 1.00000000 128.19999695 27.15393448 -108.44502258 -844.51081657 0 -1 -4 
302 7 1 -1.00000000 129.10000610 24.90367699 -111.05052948 -842.62392807 0 -1 -4 
303 7 2 1.00000000 128.19999695 26.68142509 -113.92594910 -840.90118599 0 -1 -4 
304 7 2 1.00000000 128.19999695 29.99598312 -112.91106415 -840.15107822 0 -1 -4 
305 7 2 1.00000000 128.19999695 31.50299835 -109.88556671 -837.69286346 0 -1 -4 
306 7 1 -1.00000000 129.10000610 30.71579933 -105.94047546 -837.62035465 0 -1 -4 
307 7 2 1.00000000 128.19999695 33.43770218 -103.59117889 -837.83428860 0 0 -4 
308 7 1 -1.00000000 129.10000610 31.80367088 -100.73121643 -840.39159393 0 0 -4 
309 7 1 -1.00000000 129.10000610 27.80550194 -102.10179138 -840.48898506 0 0 -4 
310 7 1 -1.00000000 129.10000610 27.05348396 -98.46830750 -841.38997269 0 0 -4 
311 7 2 1.00000000 128.19999695 25.03904533 -99.09494019 -844.65625000 0 0 -4 
312 7 1 -1.00000000 129.10000610 21.87259483 -97.64137268 -846.25599098 0 0 -4 
313 7 1 -1.00000000 129.10000610 19.03212357 -99.65246582 -844.83991814 0 0 -4 
314 7 1 -1.00000000 129.10000610 19.82990456 -100.23843384 -840.66316223 0 0 -4 
315 7 2 1.00000000 128.19999695 18.58711624 -97.96221924 -838.20069981 0 0 -4 
316 7 2 1.00000000 128.19999695 15.59960556 -95.46990967 -837.55028915 0 0 -4 
317 7 1 -1.00000000 129.10000610 12.62836170 -96.51533508 -835.45643902 0 0 -4 
318 7 1 -1.00000000 129.10000610 14.07263565 -100.08998108 -834.52288246 0 0 -4 
319 7 2 1.00000000 128.19999695 13.62751865 -100.19812775 -830.85029817 0 0 -4 
320 7 1 -1.00000000 129.10000610 12.17879009 -100.06059265 -827.33904028 0 0 -4 
321 7 1 -1.00000000 129.10000610 10.04210758 -100.38862610 -824.14303112 0 0 -4 
322 7 1 -1.00000000 129.10000610 9.75507736 -98.84140015 -820.63137341 0 0 -4 
323 7 2 1.00000000 128.19999695 6.09183407 -98.54129791 -819.32846069 0 0 -4 
324 7 1 -1.00000000 129.10000610 3.99183440 -101.66156769 -818.22531986 0 0 -4 
325 7 1 -1.00000000 129.10000610 3.36083555 -101.29268646 -814.21745586 0 0 -4 
326 7 2 1.00000000 128.19999695 0.89829063 -98.65884399 -814.21748543 0 0 -4 
327 7 2 1.00000000 128.19999695 0.20269641 -94.70106506 -814.65130997 0 0 -4 
328 7 2 1.00000000 128.19999695 1.15824735 -92.21986389 -811.93063164 0 0 -4 
329 7 2 1.00000000 128.19999695 0.73473668 -88.28388977 -810.79526711 0 0 -4 
330 7 2 1.00000000 128.19999695 -2.34568453 -86.73159790 -810.60275841 0 0 -4 
331 7 1 -1.00000000 129.10000610 -5.40242100 -86.24169159 -812.52248955 0 0 -4 
332 7 1 -1.00000000 129.10000610 -7.87364483 -86.05482483 -815.31515503 0 0 -4 
333 7 1 -1.00000000 129.10000610 -11.44569397 -85.32011414 -814.75428295 0 0 -4 
334 7 2 1.00000000 128.19999695 -13.08238697 -81.99983978 -814.27608109 0 0 -4 
335 7 2 1.00000000 128.19999695 -12.19155216 -80.32768250 -811.07621956 0 0 -4 
336 7 2 1.00000000 128.19999695 -10.20182323 -79.97722626 -807.74131966 0 0 -4 
337 7 1 -1.00000000 129.10000610 -7.00307655 -81.14604187 -806.65626335 0 0 -4 
338 7 2 1.00000000 128.19999695 -5.86587286 -84.67801666 -804.47895432 0 0 -4 
339 7 1 -1.00000000 129.10000610 -8.76609707 -85.00998688 -801.76880836 0 0 -4 
340 7 1 -1.00000000 129.10000610 -8.44152164 -83.17372131 -798.31794739 0 0 -4 
341 7 1 -1.00000000 129.10000610 -10.45585442 -79.96427155 -797.09555817 0 0 -4 
342 7 2 1.00000000 128.19999695 -10.55451584 -77.50644684 -800.07759285 0 0 -4 
343 7 1 -1.00000000 129.10000610 -7.80684757 -75.18118286 -800.77028656 0 0 -4 
344 7 2 1.00000000 128.19999695 -5.87297916 -75.37962341 -804.16764069 0 0 -4 
345 7 2 1.00000000 128.19999695 -5.70892954 -75.20043182 -808.41642952 0 0 -4 
346 7 2 1.00000000 128.19999695 -2.35805941 -74.08825684 -810.62636375 0 0 -4 
347 7 1 -1.00000000 129.10000610 -0.15441802 -71.04135132 -811.43875504 0 0 -4 
348 7 2 1.00000000 128.19999695 3.24636674 -72.57791901 -812.83061409 0 0 -4 
349 7 1 -1.00000000 129.10000610 4.05711079 -70.19445038 -815.68618870 0 0 -4 
350 7 2 1.00000000 128.19999695 5.04084444 -70.47260284 -819.22388840 0 0 -4 
351 8 2 1.00000000 128.19999695 43.08535004 -199.19625568 636.25268364 0 -1 3 
352 8 1 -1.00000000 129.10000610 44.04715729 -195.40687561 635.71953201 0 -1 3 
353 8 2 1.00000000 128.19999695 44.16657257 -191.69497108 635.44422054 0 -1 3 
354 8 2 1.00000000 128.19999695 42.65513611 -188.22019768 634.88583279 0 -1 3 
355 8 2 1.00000000 128.19999695 40.18973160 -185.90181923 633.53674221 0 -1 3 
356 8 1 -1.00000000 129.10000610 38.14014435 -187.87600327 630.86911774 0 -1 3 
357 8 2 1.00000000 128.19999695 38.22230911 -187.88993263 626.96584129 0 -1 3 
358 8 1 -1.00000000 129.10000610 36.73888779 -184.28854942 626.41332388 0 -1 3 
359 8 1 -1.00000000 129.10000610 36.44712448 -180.63951492 628.35652065 0 -1 3 
360 8 1 -1.00000000 129.10000610 35.14054871 -177.47233772 630.08004665 0 -1 3 
361 8 2 1.00000000 128.19999695 34.39573288 -176.80799675 634.06286907 0 -1 3 
362 8 1 -1.00000000 129.10000610 32.36260605 -173.70095825 633.62272358 0 -1 3 
363 8 1 -1.00000000 129.10000610 33.92511749 -170.60465240 632.64654827 0 -1 3 
364 8 1 -1.00000000 129.10000610 34.74732590 -167.35762405 630.71748924 0 -1 3 
365 8 2 1.00000000 128.19999695 32.14232635 -165.04893494 628.65601110 0 -1 3 
366 8 2 1.00000000 128.19999695 29.89273834 -165.41294861 625.29948354 0 -1 3 
367 8 1 -1.00000000 129.10000610 30.07447624 -163.65343857 622.10477001 0 -1 3 
368 8 1 -1.00000000 129.10000610 32.63097000 -165.95682907 619.64673853 0 -1 3 
369 8 2 1.00000000 128.19999695 33.48931503 -169.24968719 618.47005033 0 -1 3 
370 8 1 -1.00000000 129.10000610 33.23815536 -171.62599564 615.53401852 0 -1 3 