ITEM: TIMESTEP
44350000 
ITEM: NUMBER OF ATOMS 
25000 
ITEM: BOX BOUNDS pp pp pp 
-103.678017 103.678017 
-103.678017 103.678017 
-103.678017 103.678017 
ITEM: ATOMS id mol type q mass xu yu zu ix iy iz 
1 1 2 1.00000000 128.19999695 531.38485718 -206.22885442 -257.01569748 3 -1 -1 
2 1 1 -1.00000000 129.10000610 528.52541351 -204.11690807 -258.29425049 3 -1 -1 
3 1 2 1.00000000 128.19999695 525.93226624 -203.74512577 -261.19540024 3 -1 -1 
4 1 2 1.00000000 128.19999695 527.12262726 -203.57155681 -264.70063400 3 -1 -1 
5 1 2 1.00000000 128.19999695 529.50990295 -204.20618153 -267.71201706 3 -1 -1 
6 1 1 -1.00000000 129.10000610 530.17826080 -204.22574425 -271.20174789 3 -1 -1 
7 1 2 1.00000000 128.19999695 533.38409424 -202.44061708 -272.37264252 3 -1 -1 
8 1 1 -1.00000000 129.10000610 535.14859009 -201.01576710 -269.23725510 3 -1 -1 
9 1 1 -1.00000000 129.10000610 536.94897461 -204.36921597 -267.85234451 3 -1 -1 
10 1 1 -1.00000000 129.10000610 537.38008118 -205.89602637 -264.40781403 3 -1 -1 
11 1 2 1.00000000 128.19999695 539.35525513 -207.94364554 -261.98068619 3 -1 -1 
12 1 1 -1.00000000 129.10000610 538.84980774 -211.40579081 -262.22671890 3 -1 -1 
13 1 1 -1.00000000 129.10000610 541.52518463 -214.13229465 -263.81452942 3 -1 -1 
14 1 1 -1.00000000 129.10000610 542.30484009 -213.84899807 -267.24154663 3 -1 -1 
15 1 2 1.00000000 128.19999695 540.11999512 -213.58314800 -270.76808167 3 -1 -1 
16 1 2 1.00000000 128.19999695 539.38308716 -216.89791870 -272.76607513 3 -1 -1 
17 1 1 -1.00000000 129.10000610 540.48027802 -220.08443069 -271.09737015 3 -1 -1 
18 1 1 -1.00000000 129.10000610 541.02255249 -223.32517433 -272.76767731 3 -1 -1 
19 1 2 1.00000000 128.19999695 540.23588562 -227.12370872 -272.34858704 3 -1 -1 
20 1 1 -1.00000000 129.10000610 542.24826050 -229.70369148 -273.49739075 3 -1 -1 
21 1 1 -1.00000000 129.10000610 543.84060669 -233.11825943 -275.03660583 3 -1 -1 
22 1 1 -1.00000000 129.10000610 545.68949127 -236.35807800 -274.56977844 3 -1 -1 
23 1 2 1.00000000 128.19999695 548.32422638 -236.13504219 -271.70272827 3 -1 -1 
24 1 1 -1.00000000 129.10000610 551.88999939 -236.32779503 -273.34737396 3 -1 -1 
25 1 1 -1.00000000 129.10000610 553.43160248 -232.82271194 -274.65505219 3 -1 -1 
26 1 2 1.00000000 128.19999695 550.80619812 -230.42656326 -275.55464172 3 -1 -1 
27 1 2 1.00000000 128.19999695 549.30353546 -229.21330452 -272.09708405 3 -1 -1 
28 1 2 1.00000000 128.19999695 546.23530579 -227.31547546 -270.06609726 3 -1 -1 
29 1 2 1.00000000 128.19999695 548.35317993 -226.22780037 -266.84516907 3 -1 -1 
30 1 2 1.00000000 128.19999695 551.71765137 -224.14336395 -267.19549942 3 -1 -1 
31 1 1 -1.00000000 129.10000610 555.07585144 -224.05945015 -265.07995605 3 -1 -1 
32 1 1 -1.00000000 129.10000610 558.21416473 -222.55234718 -266.48739243 3 -1 -1 
33 1 1 -1.00000000 129.10000610 560.83716583 -219.84288692 -267.23822784 3 -1 -1 
34 1 2 1.00000000 128.19999695 562.38557053 -216.39986992 -267.93814468 3 -1 -1 
35 1 2 1.00000000 128.19999695 563.44067764 -212.75816345 -268.42197418 3 -1 -1 
36 1 2 1.00000000 128.19999695 565.30486298 -210.99890614 -271.21799469 3 -1 -1 
37 1 1 -1.00000000 129.10000610 567.54367828 -213.38961744 -272.86363220 3 -1 -1 
38 1 2 1.00000000 128.19999695 568.16237259 -213.92214394 -276.63620758 3 -1 -1 
39 1 1 -1.00000000 129.10000610 569.73610687 -212.95854282 -280.04054260 3 -1 -1 
40 1 1 -1.00000000 129.10000610 573.11249542 -213.28882122 -282.26062775 3 -1 -1 
41 1 1 -1.00000000 129.10000610 574.83168411 -216.60870361 -282.74691010 3 -1 -1 
42 1 2 1.00000000 128.19999695 578.02407837 -218.63169861 -283.93852234 3 -1 -1 
43 1 1 -1.00000000 129.10000610 578.97167969 -217.42292595 -287.18768311 3 -1 -1 
44 1 2 1.00000000 128.19999695 577.48628998 -218.28316975 -290.41658020 3 -1 -1 
45 1 2 1.00000000 128.19999695 574.59957123 -220.59143639 -291.77992249 3 -1 -1 
46 1 2 1.00000000 128.19999695 572.02766418 -220.71230793 -294.47563171 3 -1 -1 
47 1 1 -1.00000000 129.10000610 573.44718933 -220.63511848 -297.91883850 3 -1 -1 
48 1 2 1.00000000 128.19999695 577.43351364 -220.72785091 -297.21977234 3 -1 -1 
49 1 1 -1.00000000 129.10000610 579.54966354 -222.54632759 -299.76177216 3 -1 -1 
50 1 2 1.00000000 128.19999695 581.63118744 -225.82678223 -298.93659973 3 -1 -1 
51 2 2 1.00000000 128.19999695 582.06203079 316.95209503 -289.87290192 3 2 -1 
52 2 1 -1.00000000 129.10000610 581.08674240 313.96775818 -287.82143402 3 2 -1 
53 2 2 1.00000000 128.19999695 580.27426910 311.79412842 -284.92400360 3 2 -1 
54 2 2 1.00000000 128.19999695 581.88767242 308.68556213 -283.01212311 3 1 -1 
55 2 2 1.00000000 128.19999695 579.61111450 307.52298737 -280.28214264 3 1 -1 
56 2 1 -1.00000000 129.10000610 576.68813324 309.41595459 -278.47155762 3 1 -1 
57 2 2 1.00000000 128.19999695 576.36906815 309.27995300 -274.72462463 3 1 -1 
58 2 1 -1.00000000 129.10000610 576.93416214 307.06555939 -271.31969833 3 1 -1 
59 2 1 -1.00000000 129.10000610 579.73865509 304.61685181 -270.24026108 3 1 -1 
60 2 1 -1.00000000 129.10000610 580.47503662 306.73390198 -267.14009857 3 1 -1 
61 2 2 1.00000000 128.19999695 583.26438141 309.38004303 -267.37627029 3 1 -1 
62 2 1 -1.00000000 129.10000610 585.60546494 312.03460693 -266.70985031 3 2 -1 
63 2 1 -1.00000000 129.10000610 587.15796661 315.30818939 -268.26371384 3 2 -1 
64 2 1 -1.00000000 129.10000610 588.88153839 314.74331665 -271.59127045 3 2 -1 
65 2 2 1.00000000 128.19999695 587.67466736 311.76420593 -273.29669952 3 2 -1 
66 2 2 1.00000000 128.19999695 587.69046021 308.04714203 -274.20260620 3 1 -1 
67 2 1 -1.00000000 129.10000610 586.21246338 305.68539429 -276.71480560 3 1 -1 
68 2 1 -1.00000000 129.10000610 588.38043213 303.79250336 -279.48197174 3 1 -1 
69 2 2 1.00000000 128.19999695 589.60881805 302.67662811 -282.81708527 3 1 -1 
70 2 1 -1.00000000 129.10000610 588.61712646 300.41317749 -285.53769684 3 1 -1 
71 2 1 -1.00000000 129.10000610 585.86719513 298.80604553 -287.11602020 3 1 -1 
72 2 1 -1.00000000 129.10000610 583.57419586 296.82875824 -284.78079224 3 1 -1 
73 2 2 1.00000000 128.19999695 582.92032242 296.72068024 -281.14659119 3 1 -1 
74 2 1 -1.00000000 129.10000610 585.22880936 298.11154938 -277.92638397 3 1 -1 
75 2 1 -1.00000000 129.10000610 587.60343933 295.00578308 -277.86514282 3 1 -1 
76 2 2 1.00000000 128.19999695 590.05496597 295.39852142 -275.42885590 3 1 -1 
77 2 2 1.00000000 128.19999695 593.98661613 295.31628418 -275.19201660 3 1 -1 
78 2 2 1.00000000 128.19999695 596.22202873 294.71728516 -272.38705444 3 1 -1 
79 2 2 1.00000000 128.19999695 599.00055885 292.51711273 -270.97688675 3 1 -1 
80 2 2 1.00000000 128.19999695 602.15919876 292.47236633 -268.82213974 3 1 -1 
81 2 1 -1.00000000 129.10000610 602.50498390 294.76673889 -265.96985245 3 1 -1 
82 2 1 -1.00000000 129.10000610 602.86058235 297.18414307 -263.10821915 3 1 -1 
83 2 1 -1.00000000 129.10000610 605.27510262 299.83321381 -260.70154190 3 1 -1 
84 2 2 1.00000000 128.19999695 606.11035633 302.50196838 -263.64762878 3 1 -1 
85 2 2 1.00000000 128.19999695 609.42007256 302.71404266 -265.07698441 3 1 -1 
86 2 2 1.00000000 128.19999695 610.98083019 306.32599640 -264.46043396 3 1 -1 
87 2 1 -1.00000000 129.10000610 608.93103695 309.16227722 -263.56238937 3 1 -1 
88 2 2 1.00000000 128.19999695 611.58926392 312.00732422 -262.80280685 3 2 -1 
89 2 1 -1.00000000 129.10000610 611.88239288 313.37873840 -266.30553818 3 2 -1 
90 2 1 -1.00000000 129.10000610 609.74851131 312.89793396 -269.23756027 3 2 -1 
91 2 1 -1.00000000 129.10000610 609.19094467 310.34221649 -271.93405151 3 1 -1 
92 2 2 1.00000000 128.19999695 605.37722588 309.83958435 -273.39345551 3 1 -1 
93 2 1 -1.00000000 129.10000610 602.34650230 312.21412659 -273.09906769 3 2 -1 
94 2 2 1.00000000 128.19999695 602.58108711 314.98806000 -270.75844574 3 2 -1 
95 2 2 1.00000000 128.19999695 599.18710136 315.38090515 -268.79870224 3 2 -1 
96 2 2 1.00000000 128.19999695 596.36609459 317.48200989 -270.67251968 3 2 -1 
97 2 1 -1.00000000 129.10000610 597.45021439 316.64163971 -274.56533051 3 2 -1 
98 2 2 1.00000000 128.19999695 598.18772507 317.03636932 -277.91469574 3 2 -1 
99 2 1 -1.00000000 129.10000610 596.68868256 320.39994049 -278.35131836 3 2 -1 
100 2 2 1.00000000 128.19999695 596.53902054 321.39772797 -281.81974792 3 2 -1 
101 3 2 1.00000000 128.19999695 295.39118195 -143.02881622 93.09671021 1 -1 0 
102 3 1 -1.00000000 129.10000610 294.09676361 -142.15174103 89.49502563 1 -1 0 
103 3 2 1.00000000 128.19999695 291.46405792 -143.89521027 87.05164337 1 -1 0 
104 3 2 1.00000000 128.19999695 287.69029999 -145.19808197 86.59236908 1 -1 0 
105 3 2 1.00000000 128.19999695 286.65258789 -147.52358627 83.53198242 1 -1 0 
106 3 1 -1.00000000 129.10000610 287.56367493 -149.45807648 80.09732056 1 -1 0 
107 3 2 1.00000000 128.19999695 291.35910797 -149.07324219 79.59391022 1 -1 0 
108 3 1 -1.00000000 129.10000610 295.24343872 -149.03351593 80.06455231 1 -1 0 
109 3 1 -1.00000000 129.10000610 297.70679474 -146.34901810 81.25711060 1 -1 0 
110 3 1 -1.00000000 129.10000610 299.58760834 -144.09959793 78.89043427 1 -1 0 
111 3 2 1.00000000 128.19999695 301.10697937 -140.68385315 78.06681824 1 -1 0 
112 3 1 -1.00000000 129.10000610 301.14528656 -136.72265625 77.00722504 1 -1 0 
113 3 1 -1.00000000 129.10000610 303.85012817 -134.26211548 75.45250702 1 -1 0 
114 3 1 -1.00000000 129.10000610 307.39003754 -134.59993744 75.88230896 1 -1 0 
115 3 2 1.00000000 128.19999695 309.12921906 -137.87323761 74.83574677 1 -1 0 
116 3 2 1.00000000 128.19999695 310.22775269 -137.08880615 71.15396118 1 -1 0 
117 3 1 -1.00000000 129.10000610 310.61938477 -140.46133423 69.50341797 1 -1 0 
118 3 1 -1.00000000 129.10000610 311.37290955 -142.21117401 66.23586273 2 -1 0 
119 3 2 1.00000000 128.19999695 311.64264679 -146.30657196 66.53889465 2 -1 0 
120 3 1 -1.00000000 129.10000610 315.45850372 -146.96031952 66.47544861 2 -1 0 
121 3 1 -1.00000000 129.10000610 316.44952393 -148.00525665 62.70608521 2 -1 0 
122 3 1 -1.00000000 129.10000610 314.25854492 -147.56615067 59.67196655 2 -1 0 
123 3 2 1.00000000 128.19999695 311.73829651 -150.19390488 60.30474472 2 -1 0 
124 3 1 -1.00000000 129.10000610 308.09995270 -148.84702682 59.91403580 1 -1 0 
125 3 1 -1.00000000 129.10000610 304.68276978 -150.23800278 60.71325302 1 -1 0 
126 3 2 1.00000000 128.19999695 305.02488708 -152.75165939 63.56128693 1 -1 0 
127 3 2 1.00000000 128.19999695 301.92604828 -151.18850327 65.80618286 1 -1 0 
128 3 2 1.00000000 128.19999695 300.92369843 -150.65603256 69.56385803 1 -1 0 
129 3 2 1.00000000 128.19999695 302.82076263 -150.51884079 73.04334259 1 -1 0 
130 3 2 1.00000000 128.19999695 305.49843597 -150.98373795 75.70129395 1 -1 0 
131 3 1 -1.00000000 129.10000610 305.99602509 -148.10740662 77.84149933 1 -1 0 
132 3 1 -1.00000000 129.10000610 307.93757629 -148.23533249 81.19651794 1 -1 0 
133 3 1 -1.00000000 129.10000610 309.93022156 -146.44908524 83.93511200 1 -1 0 
134 3 2 1.00000000 128.19999695 307.74474335 -144.23885727 85.87001801 1 -1 0 
135 3 2 1.00000000 128.19999695 305.47271729 -141.37206268 85.26879120 1 -1 0 
136 3 2 1.00000000 128.19999695 303.76703644 -138.63449097 83.65374756 1 -1 0 
137 3 1 -1.00000000 129.10000610 300.72461700 -137.11111450 85.91076660 1 -1 0 
138 3 2 1.00000000 128.19999695 298.56431580 -137.07038879 88.97817230 1 -1 0 
139 3 1 -1.00000000 129.10000610 296.11003876 -134.98294830 90.87915802 1 -1 0 
140 3 1 -1.00000000 129.10000610 295.92359161 -132.76900482 93.68880463 1 -1 0 
141 3 1 -1.00000000 129.10000610 297.03498840 -129.23957062 94.07183075 1 -1 0 
142 3 2 1.00000000 128.19999695 297.22087097 -125.96514130 91.85056305 1 -1 0 
143 3 1 -1.00000000 129.10000610 294.18360901 -123.23796844 91.66922760 1 -1 0 
144 3 2 1.00000000 128.19999695 290.86331177 -124.92459869 91.13290405 1 -1 0 
145 3 2 1.00000000 128.19999695 291.30331421 -128.42352295 89.55845642 1 -1 0 
146 3 2 1.00000000 128.19999695 289.32408142 -131.50843811 90.82991028 1 -1 0 
147 3 1 -1.00000000 129.10000610 289.63513184 -134.57539368 93.21900177 1 -1 0 
148 3 2 1.00000000 128.19999695 289.38825226 -133.46146393 96.74433136 1 -1 0 
149 3 1 -1.00000000 129.10000610 289.18419647 -135.05152130 99.98365021 1 -1 0 
150 3 2 1.00000000 128.19999695 289.00202179 -138.85361481 100.11986542 1 -1 0 
151 4 2 1.00000000 128.19999695 -270.51365280 337.06665039 15.39277172 -1 2 0 
152 4 1 -1.00000000 129.10000610 -268.74324799 333.83051300 15.19979668 -1 2 0 
153 4 2 1.00000000 128.19999695 -268.18815231 330.88346863 13.23753357 -1 2 0 
154 4 2 1.00000000 128.19999695 -266.70151901 328.08071899 11.27887249 -1 2 0 
155 4 2 1.00000000 128.19999695 -269.50435257 325.34228516 11.34552574 -1 2 0 
156 4 1 -1.00000000 129.10000610 -270.86207199 322.11610413 13.03525829 -1 2 0 
157 4 2 1.00000000 128.19999695 -273.50550842 319.25455475 13.74087715 -1 2 0 
158 4 1 -1.00000000 129.10000610 -275.03331757 315.61463928 12.90007496 -1 2 0 
159 4 1 -1.00000000 129.10000610 -276.48515320 314.98271179 9.48868275 -1 2 0 
160 4 1 -1.00000000 129.10000610 -277.70464325 318.75608826 9.25745201 -1 2 0 
161 4 2 1.00000000 128.19999695 -277.93324280 322.85033417 9.73741341 -1 2 0 
162 4 1 -1.00000000 129.10000610 -275.61917114 325.27666473 11.01600266 -1 2 0 
163 4 1 -1.00000000 129.10000610 -275.96801758 328.88838196 10.51262379 -1 2 0 
164 4 1 -1.00000000 129.10000610 -274.62310028 332.34671783 10.77577305 -1 2 0 
165 4 2 1.00000000 128.19999695 -274.07394409 336.07322693 10.16470718 -1 2 0 
166 4 2 1.00000000 128.19999695 -275.84746552 339.36994171 10.43159485 -1 2 0 
167 4 1 -1.00000000 129.10000610 -272.94008636 341.57466125 11.55609989 -1 2 0 
168 4 1 -1.00000000 129.10000610 -269.91387558 342.42543793 9.58603573 -1 2 0 
169 4 2 1.00000000 128.19999695 -268.59526825 345.20828247 7.25557613 -1 2 0 
170 4 1 -1.00000000 129.10000610 -270.49373245 348.81395721 7.76483965 -1 2 0 
171 4 1 -1.00000000 129.10000610 -269.86430359 350.11621094 11.38071632 -1 2 0 
172 4 1 -1.00000000 129.10000610 -267.33106232 350.39019775 14.26690674 -1 2 0 
173 4 2 1.00000000 128.19999695 -264.51842499 352.62627411 12.91174698 -1 2 0 
174 4 1 -1.00000000 129.10000610 -261.62188721 353.12610626 10.68590355 -1 2 0 
175 4 1 -1.00000000 129.10000610 -261.54359436 354.66424942 7.23650360 -1 2 0 
176 4 2 1.00000000 128.19999695 -258.53217316 354.16066742 5.02111721 -1 2 0 
177 4 2 1.00000000 128.19999695 -257.04466629 353.68632889 1.49958396 -1 2 0 
178 4 2 1.00000000 128.19999695 -254.32938766 354.43246460 -1.17683518 -1 2 0 
179 4 2 1.00000000 128.19999695 -252.96220398 352.41093063 -4.19576979 -1 2 0 
180 4 2 1.00000000 128.19999695 -252.07905579 350.31349182 -7.39201164 -1 2 0 
181 4 1 -1.00000000 129.10000610 -252.58062363 346.39649963 -7.42733288 -1 2 0 
182 4 1 -1.00000000 129.10000610 -255.09164429 346.58038330 -4.20701551 -1 2 0 
183 4 1 -1.00000000 129.10000610 -253.80256653 344.11205292 -0.74232286 -1 2 0 
184 4 2 1.00000000 128.19999695 -256.98247528 342.69996643 0.53414237 -1 2 0 
185 4 2 1.00000000 128.19999695 -257.29640198 344.54407501 4.00069666 -1 2 0 
186 4 2 1.00000000 128.19999695 -260.26910782 345.34767151 6.76114368 -1 2 0 
187 4 1 -1.00000000 129.10000610 -263.36307144 347.02378845 4.96692228 -1 2 0 
188 4 2 1.00000000 128.19999695 -265.54627228 345.73352814 1.73541892 -1 2 0 
189 4 1 -1.00000000 129.10000610 -264.21398926 342.05148315 0.72907650 -1 2 0 
190 4 1 -1.00000000 129.10000610 -261.90595245 339.82881927 3.14472795 -1 2 0 
191 4 1 -1.00000000 129.10000610 -260.86737061 339.61521149 6.83119345 -1 2 0 
192 4 2 1.00000000 128.19999695 -263.50715637 338.09181976 9.09249306 -1 2 0 
193 4 1 -1.00000000 129.10000610 -263.76073074 341.09532166 11.65505981 -1 2 0 
194 4 2 1.00000000 128.19999695 -263.68339157 344.24219513 13.76884365 -1 2 0 
195 4 2 1.00000000 128.19999695 -262.45869446 347.24162292 16.29999733 -1 2 0 
196 4 2 1.00000000 128.19999695 -259.00328064 347.10073090 17.92184258 -1 2 0 
197 4 1 -1.00000000 129.10000610 -255.82194519 347.08513641 19.94169807 -1 2 0 
198 4 2 1.00000000 128.19999695 -252.77064896 348.99028015 21.17819214 -1 2 0 
199 4 1 -1.00000000 129.10000610 -253.37034988 352.46263504 19.81089783 -1 2 0 
200 4 2 1.00000000 128.19999695 -250.94318008 353.39253235 17.06819344 -1 2 0 
201 5 2 1.00000000 128.19999695 -313.84618378 -238.93797493 -209.00396144 -2 -1 -1 
202 5 1 -1.00000000 129.10000610 -312.90360260 -236.89173698 -205.83838105 -2 -1 -1 
203 5 2 1.00000000 128.19999695 -310.59069824 -236.91849709 -203.12168646 -1 -1 -1 
204 5 2 1.00000000 128.19999695 -307.68779755 -236.61288071 -200.61020660 -1 -1 -1 
205 5 2 1.00000000 128.19999695 -303.96089172 -236.45660591 -199.20523071 -1 -1 -1 
206 5 1 -1.00000000 129.10000610 -302.07889557 -238.84563446 -201.27081490 -1 -1 -1 
207 5 2 1.00000000 128.19999695 -299.21017456 -240.50551224 -203.53117442 -1 -1 -1 
208 5 1 -1.00000000 129.10000610 -298.77939606 -244.17189789 -204.42520308 -1 -1 -1 
209 5 1 -1.00000000 129.10000610 -298.38515472 -247.60023117 -205.20516419 -1 -1 -1 
210 5 1 -1.00000000 129.10000610 -297.25502777 -250.80154800 -206.88549662 -1 -1 -1 
211 5 2 1.00000000 128.19999695 -295.15358734 -252.25260544 -203.75229549 -1 -1 -1 
212 5 1 -1.00000000 129.10000610 -292.70207214 -249.89056015 -202.68851042 -1 -1 -1 
213 5 1 -1.00000000 129.10000610 -289.99362183 -247.38423920 -201.83715343 -1 -1 -1 
214 5 1 -1.00000000 129.10000610 -289.12427521 -246.39548111 -198.19379902 -1 -1 -1 
215 5 2 1.00000000 128.19999695 -286.97118378 -249.13270569 -196.26971817 -1 -1 -1 
216 5 2 1.00000000 128.19999695 -284.18235016 -247.40706253 -194.18521023 -1 -1 -1 
217 5 1 -1.00000000 129.10000610 -285.39200592 -244.94782257 -191.36475086 -1 -1 -1 
218 5 1 -1.00000000 129.10000610 -282.73975372 -244.01852417 -189.10191917 -1 -1 -1 
219 5 2 1.00000000 128.19999695 -283.21075439 -245.57291412 -185.43489075 -1 -1 -1 
220 5 1 -1.00000000 129.10000610 -282.83289337 -249.43547058 -185.29073334 -1 -1 -1 
221 5 1 -1.00000000 129.10000610 -285.50762177 -252.11471558 -187.22415543 -1 -1 -1 
222 5 1 -1.00000000 129.10000610 -287.19921112 -253.10680389 -184.35865211 -1 -1 -1 
223 5 2 1.00000000 128.19999695 -290.17243195 -250.86123276 -183.26536942 -1 -1 -1 
224 5 1 -1.00000000 129.10000610 -290.96179962 -248.32380295 -180.67293358 -1 -1 -1 
225 5 1 -1.00000000 129.10000610 -293.34848022 -245.23071289 -180.16539383 -1 -1 -1 
226 5 2 1.00000000 128.19999695 -292.37413788 -241.31887054 -180.81949425 -1 -1 -1 
227 5 2 1.00000000 128.19999695 -290.82994080 -237.68247032 -180.69969177 -1 -1 -1 
228 5 2 1.00000000 128.19999695 -288.83276367 -237.60228157 -183.97401810 -1 -1 -1 
229 5 2 1.00000000 128.19999695 -285.32223511 -237.91358376 -183.24562836 -1 -1 -1 
230 5 2 1.00000000 128.19999695 -281.70948792 -238.22961617 -184.03059959 -1 -1 -1 
231 5 1 -1.00000000 129.10000610 -278.88529205 -240.43571854 -182.81194878 -1 -1 -1 
232 5 1 -1.00000000 129.10000610 -276.87061310 -238.64907074 -179.74658585 -1 -1 -1 
233 5 1 -1.00000000 129.10000610 -274.40749359 -235.93458939 -180.73602867 -1 -1 -1 
234 5 2 1.00000000 128.19999695 -272.10102844 -234.36472511 -183.34222603 -1 -1 -1 
235 5 2 1.00000000 128.19999695 -272.23685455 -234.05056953 -186.95006943 -1 -1 -1 
236 5 2 1.00000000 128.19999695 -270.80722046 -236.36287308 -189.42617607 -1 -1 -1 
237 5 1 -1.00000000 129.10000610 -270.31949234 -236.55428696 -193.20797253 -1 -1 -1 
238 5 2 1.00000000 128.19999695 -271.52409363 -240.08854675 -194.56994724 -1 -1 -1 
239 5 1 -1.00000000 129.10000610 -272.97492981 -241.88910675 -191.41209888 -1 -1 -1 
240 5 1 -1.00000000 129.10000610 -271.02174759 -242.23424149 -188.27371025 -1 -1 -1 
241 5 1 -1.00000000 129.10000610 -272.76302338 -245.04792404 -186.60252953 -1 -1 -1 
242 5 2 1.00000000 128.19999695 -276.12052917 -246.19442368 -185.16003609 -1 -1 -1 
243 5 1 -1.00000000 129.10000610 -278.17084503 -247.44052887 -182.18613625 -1 -1 -1 
244 5 2 1.00000000 128.19999695 -278.36183167 -246.47281647 -178.60509682 -1 -1 -1 
245 5 2 1.00000000 128.19999695 -278.87456512 -250.23402786 -177.03599358 -1 -1 -1 
246 5 2 1.00000000 128.19999695 -278.27717590 -253.36605072 -175.39793968 -1 -1 -1 
247 5 1 -1.00000000 129.10000610 -280.17854309 -253.92772293 -172.00640106 -1 -1 -1 
248 5 2 1.00000000 128.19999695 -279.24380493 -255.66032791 -168.67955017 -1 -1 -1 
249 5 1 -1.00000000 129.10000610 -276.68798065 -254.35581207 -166.38812256 -1 -1 -1 
250 5 2 1.00000000 128.19999695 -276.09500122 -252.17342377 -163.45433426 -1 -1 -1 
251 6 2 1.00000000 128.19999695 488.36430359 -446.68409920 -122.00865173 2 -2 -1 
252 6 1 -1.00000000 129.10000610 487.48152924 -450.09082031 -120.13185883 2 -2 -1 
253 6 2 1.00000000 128.19999695 484.57462311 -452.61855698 -119.82543182 2 -2 -1 
254 6 2 1.00000000 128.19999695 482.14864349 -451.25223160 -117.43157959 2 -2 -1 
255 6 2 1.00000000 128.19999695 479.75128174 -450.57686996 -114.53279114 2 -2 -1 
256 6 1 -1.00000000 129.10000610 477.30527878 -448.26303101 -113.05467987 2 -2 -1 
257 6 2 1.00000000 128.19999695 479.16110229 -446.03310204 -110.58888245 2 -2 -1 
258 6 1 -1.00000000 129.10000610 479.49590302 -448.09864426 -107.44617462 2 -2 -1 
259 6 1 -1.00000000 129.10000610 475.79621124 -448.58628464 -105.99150848 2 -2 -1 
260 6 1 -1.00000000 129.10000610 476.48376083 -451.90594101 -104.52388763 2 -2 -1 
261 6 2 1.00000000 128.19999695 477.69942856 -454.99732971 -102.23078918 2 -2 0 
262 6 1 -1.00000000 129.10000610 480.32093048 -455.66378784 -99.72827911 2 -2 0 
263 6 1 -1.00000000 129.10000610 482.71983337 -457.32007980 -97.06085968 2 -2 0 
264 6 1 -1.00000000 129.10000610 485.95544434 -456.28048325 -96.67194366 2 -2 0 
265 6 2 1.00000000 128.19999695 489.66750336 -456.39078140 -94.91777039 2 -2 0 
266 6 2 1.00000000 128.19999695 490.89726257 -453.12577438 -93.48313141 2 -2 0 
267 6 1 -1.00000000 129.10000610 494.52728271 -451.95267487 -94.45114136 2 -2 0 
268 6 1 -1.00000000 129.10000610 496.34063721 -452.51143646 -91.43034363 2 -2 0 
269 6 2 1.00000000 128.19999695 498.84421539 -454.98438644 -90.41446686 2 -2 0 
270 6 1 -1.00000000 129.10000610 500.37525940 -457.14059448 -87.61458588 2 -2 0 
271 6 1 -1.00000000 129.10000610 503.04305267 -459.01475906 -89.58756256 2 -2 0 
272 6 1 -1.00000000 129.10000610 504.66984558 -461.01094818 -92.75147247 2 -2 0 
273 6 2 1.00000000 128.19999695 502.13379669 -461.35730743 -95.34368896 2 -2 0 
274 6 1 -1.00000000 129.10000610 502.93583679 -458.85741425 -98.23499298 2 -2 0 
275 6 1 -1.00000000 129.10000610 505.67304993 -460.85841751 -99.84128571 2 -2 0 
276 6 2 1.00000000 128.19999695 507.55171967 -462.78894806 -102.02207184 2 -2 0 
277 6 2 1.00000000 128.19999695 506.41152954 -466.63509750 -103.67873383 2 -2 -1 
278 6 2 1.00000000 128.19999695 506.19640350 -466.59580994 -107.66783142 2 -2 -1 
279 6 2 1.00000000 128.19999695 504.99289703 -466.25670242 -110.99313354 2 -2 -1 
280 6 2 1.00000000 128.19999695 504.04659271 -464.76420593 -114.47422791 2 -2 -1 
281 6 1 -1.00000000 129.10000610 504.70667267 -462.66450882 -117.99282837 2 -2 -1 
282 6 1 -1.00000000 129.10000610 504.61088562 -463.77907181 -121.43266296 2 -2 -1 
283 6 1 -1.00000000 129.10000610 501.45127869 -464.70751953 -123.52705383 2 -2 -1 
284 6 2 1.00000000 128.19999695 498.82919312 -462.07440567 -122.68151855 2 -2 -1 
285 6 2 1.00000000 128.19999695 498.41964722 -458.21392441 -122.57761383 2 -2 -1 
286 6 2 1.00000000 128.19999695 500.77705383 -455.29455185 -122.76039886 2 -2 -1 
287 6 1 -1.00000000 129.10000610 501.54783630 -451.36345673 -122.85884857 2 -2 -1 
288 6 2 1.00000000 128.19999695 499.76901245 -449.83126450 -125.83787537 2 -2 -1 
289 6 1 -1.00000000 129.10000610 502.48744202 -449.71261978 -128.39925385 2 -2 -1 
290 6 1 -1.00000000 129.10000610 502.62084961 -450.09371948 -132.08155823 2 -2 -1 
291 6 1 -1.00000000 129.10000610 502.95719910 -450.97896957 -135.77136230 2 -2 -1 
292 6 2 1.00000000 128.19999695 501.49460602 -451.49599457 -139.29399109 2 -2 -1 
293 6 1 -1.00000000 129.10000610 504.11787415 -450.18810272 -141.57349396 2 -2 -1 
294 6 2 1.00000000 128.19999695 506.45049286 -452.48048782 -143.69128799 2 -2 -1 
295 6 2 1.00000000 128.19999695 509.33361053 -454.42161179 -142.11807251 2 -2 -1 
296 6 2 1.00000000 128.19999695 510.07263184 -458.33234787 -141.76192474 2 -2 -1 
297 6 1 -1.00000000 129.10000610 507.45158386 -459.67835999 -139.13095093 2 -2 -1 
298 6 2 1.00000000 128.19999695 507.21731567 -459.40988541 -135.33494568 2 -2 -1 
299 6 1 -1.00000000 129.10000610 510.62920380 -458.67154694 -133.48347473 2 -2 -1 
300 6 2 1.00000000 128.19999695 514.24283600 -460.20508194 -134.85739136 2 -2 -1 
301 7 2 1.00000000 128.19999695 -8.60237217 -9.57254219 -811.67733192 0 0 -4 
302 7 1 -1.00000000 129.10000610 -12.30459690 -10.46348572 -812.30564117 0 0 -4 
303 7 2 1.00000000 128.19999695 -14.97576332 -13.09203720 -813.57220745 0 0 -4 
304 7 2 1.00000000 128.19999695 -16.09424019 -16.39381218 -812.25865173 0 0 -4 
305 7 2 1.00000000 128.19999695 -15.00110340 -20.20589066 -813.69924927 0 0 -4 
306 7 1 -1.00000000 129.10000610 -12.63196182 -23.03985786 -812.94705391 0 0 -4 
307 7 2 1.00000000 128.19999695 -11.14374638 -26.69426918 -813.38169289 0 0 -4 
308 7 1 -1.00000000 129.10000610 -9.39115715 -28.37967682 -810.39665222 0 0 -4 
309 7 1 -1.00000000 129.10000610 -11.58738899 -31.66564369 -810.24120712 0 0 -4 
310 7 1 -1.00000000 129.10000610 -12.63943481 -35.38894653 -810.29712677 0 0 -4 
311 7 2 1.00000000 128.19999695 -9.85503387 -37.54037476 -809.09897041 0 0 -4 
312 7 1 -1.00000000 129.10000610 -8.31303978 -40.82165527 -807.09244728 0 0 -4 
313 7 1 -1.00000000 129.10000610 -8.03313828 -39.64168930 -803.53551865 0 0 -4 
314 7 1 -1.00000000 129.10000610 -7.39192581 -35.79457474 -803.57733536 0 0 -4 
315 7 2 1.00000000 128.19999695 -5.17921638 -32.85425568 -802.33026695 0 0 -4 
316 7 2 1.00000000 128.19999695 -5.19556427 -29.15420151 -803.83042145 0 0 -4 
317 7 1 -1.00000000 129.10000610 -8.41611290 -27.58765984 -803.63996315 0 0 -4 
318 7 1 -1.00000000 129.10000610 -10.56124115 -29.84797668 -801.53964233 0 0 -4 
319 7 2 1.00000000 128.19999695 -11.38339043 -32.57445908 -798.73833466 0 0 -4 
320 7 1 -1.00000000 129.10000610 -10.80959892 -30.20704460 -795.57203293 0 0 -4 
321 7 1 -1.00000000 129.10000610 -8.12515259 -31.99872398 -793.23864365 0 0 -4 
322 7 1 -1.00000000 129.10000610 -6.37147665 -35.27216339 -792.60496902 0 0 -4 
323 7 2 1.00000000 128.19999695 -2.16598749 -35.54379272 -791.94349670 0 0 -4 
324 7 1 -1.00000000 129.10000610 -1.03898919 -32.84084320 -789.29402924 0 0 -4 
325 7 1 -1.00000000 129.10000610 -0.22014794 -34.87637711 -786.18735123 0 0 -4 
326 7 2 1.00000000 128.19999695 2.88944077 -37.37711334 -786.10036850 0 0 -4 
327 7 2 1.00000000 128.19999695 4.05681753 -37.28823090 -789.63439560 0 0 -4 
328 7 2 1.00000000 128.19999695 4.50347137 -33.39560318 -790.56557083 0 0 -4 
329 7 2 1.00000000 128.19999695 6.57573557 -33.61530685 -793.98975372 0 0 -4 
330 7 2 1.00000000 128.19999695 9.50743103 -31.67192268 -795.13672256 0 0 -4 
331 7 1 -1.00000000 129.10000610 11.18251419 -28.61478996 -793.41075516 0 0 -4 
332 7 1 -1.00000000 129.10000610 10.54533100 -25.31766510 -795.35983276 0 0 -4 
333 7 1 -1.00000000 129.10000610 8.83629227 -23.68559456 -798.45159340 0 0 -4 
334 7 2 1.00000000 128.19999695 5.84587669 -25.40552902 -800.54352760 0 0 -4 
335 7 2 1.00000000 128.19999695 2.53372717 -23.26453972 -800.73710632 0 0 -4 
336 7 2 1.00000000 128.19999695 -0.40732482 -21.37290192 -800.22262955 0 0 -4 
337 7 1 -1.00000000 129.10000610 -2.87510347 -18.89072227 -800.20160675 0 0 -4 
338 7 2 1.00000000 128.19999695 -4.75039244 -15.42371273 -799.23060989 0 0 -4 
339 7 1 -1.00000000 129.10000610 -7.64391327 -17.57694244 -797.42211151 0 0 -4 
340 7 1 -1.00000000 129.10000610 -7.67694569 -21.06444550 -796.63110733 0 0 -4 
341 7 1 -1.00000000 129.10000610 -7.29660654 -23.00848007 -793.50862885 0 0 -4 
342 7 2 1.00000000 128.19999695 -5.29026556 -26.36622810 -794.33158493 0 0 -4 
343 7 1 -1.00000000 129.10000610 -2.22474217 -27.02546310 -796.30694199 0 0 -4 
344 7 2 1.00000000 128.19999695 1.35946810 -28.32200050 -795.53964615 0 0 -4 
345 7 2 1.00000000 128.19999695 2.23464942 -27.77091217 -791.65828323 0 0 -4 
346 7 2 1.00000000 128.19999695 1.75632000 -25.99832726 -788.04576874 0 0 -4 
347 7 1 -1.00000000 129.10000610 0.86282068 -25.92236137 -784.52306747 0 0 -4 
348 7 2 1.00000000 128.19999695 1.93770814 -24.22022438 -781.22294235 0 0 -4 
349 7 1 -1.00000000 129.10000610 3.22543812 -26.76096535 -779.19975281 0 0 -4 
350 7 2 1.00000000 128.19999695 5.29307842 -29.73922348 -780.79096603 0 0 -4 
351 8 2 1.00000000 128.19999695 -4.18476868 -197.98739719 638.29311752 0 -1 3 
352 8 1 -1.00000000 129.10000610 -5.06375122 -200.05822229 635.36953354 0 -1 3 
353 8 2 1.00000000 128.19999695 -2.89756560 -203.20052433 634.97031593 0 -1 3 
354 8 2 1.00000000 128.19999695 0.65382260 -203.05541992 633.04047871 0 -1 3 
355 8 2 1.00000000 128.19999695 3.27972126 -200.40466261 633.19950104 0 -1 3 
356 8 1 -1.00000000 129.10000610 6.02928495 -200.89170170 635.76601028 0 -1 3 
357 8 2 1.00000000 128.19999695 8.53780842 -203.11852169 636.77868080 0 -1 3 
358 8 1 -1.00000000 129.10000610 11.03756523 -203.40021753 633.78651047 0 -1 3 
359 8 1 -1.00000000 129.10000610 10.25822353 -201.64596319 630.40160179 0 -1 3 
360 8 1 -1.00000000 129.10000610 13.92883301 -200.58675051 629.79844761 0 -1 3 
361 8 2 1.00000000 128.19999695 16.86943626 -202.90525103 629.80185032 0 -1 3 
362 8 1 -1.00000000 129.10000610 19.00737381 -201.24518013 627.27714348 0 -1 3 
363 8 1 -1.00000000 129.10000610 17.63054657 -200.70909977 623.81786084 0 -1 3 
364 8 1 -1.00000000 129.10000610 20.56294250 -199.68123627 621.40278041 0 -1 3 
365 8 2 1.00000000 128.19999695 24.01122475 -198.52364540 620.54339945 0 -1 3 
366 8 2 1.00000000 128.19999695 26.11441803 -199.99901962 617.76235676 0 -1 3 
367 8 1 -1.00000000 129.10000610 24.91578674 -199.22078419 614.50831842 0 -1 3 
368 8 1 -1.00000000 129.10000610 24.92950630 -201.79813766 611.72856426 0 -1 3 
369 8 2 1.00000000 128.19999695 26.36963272 -204.80407166 613.53865051 0 -1 3 