ITEM: TIMESTEP
40300000 
ITEM: NUMBER OF ATOMS 
25000 
ITEM: BOX BOUNDS pp pp pp 
-103.678017 103.678017 
-103.678017 103.678017 
-103.678017 103.678017 
ITEM: ATOMS id mol type q mass xu yu zu ix iy iz 
1 1 2 1.00000000 128.19999695 402.55049229 68.27157593 -333.84814453 2 0 -2 
2 1 1 -1.00000000 129.10000610 404.39810371 70.65155792 -336.08909607 2 0 -2 
3 1 2 1.00000000 128.19999695 406.96355724 69.43746185 -338.39786530 2 0 -2 
4 1 2 1.00000000 128.19999695 409.21950817 72.30256653 -339.96257019 2 0 -2 
5 1 2 1.00000000 128.19999695 412.88956821 71.09144592 -340.14256287 2 0 -2 
6 1 1 -1.00000000 129.10000610 412.93435585 67.66197968 -341.65090179 2 0 -2 
7 1 2 1.00000000 128.19999695 413.30525267 63.61272812 -341.99919128 2 0 -2 
8 1 1 -1.00000000 129.10000610 410.75943351 61.39693832 -343.69363403 2 0 -2 
9 1 1 -1.00000000 129.10000610 412.17167997 60.13918304 -346.96900177 2 0 -2 
10 1 1 -1.00000000 129.10000610 414.46872482 57.27732468 -348.34472656 2 0 -2 
11 1 2 1.00000000 128.19999695 417.42479324 57.92841339 -350.56809998 2 0 -2 
12 1 1 -1.00000000 129.10000610 421.05406713 58.00887680 -350.76399994 2 0 -2 
13 1 1 -1.00000000 129.10000610 423.78863525 56.01068878 -349.45200348 2 0 -2 
14 1 1 -1.00000000 129.10000610 427.33288002 57.17128372 -350.13003540 2 0 -2 
15 1 2 1.00000000 128.19999695 427.69344616 56.63454819 -353.96891785 2 0 -2 
16 1 2 1.00000000 128.19999695 429.52827549 53.37776184 -354.60488510 2 0 -2 
17 1 1 -1.00000000 129.10000610 428.68795967 52.45300674 -358.11502075 2 0 -2 
18 1 1 -1.00000000 129.10000610 425.97090244 54.72765350 -359.95930862 2 0 -2 
19 1 2 1.00000000 128.19999695 422.63945627 53.68192673 -358.79731750 2 0 -2 
20 1 1 -1.00000000 129.10000610 421.71298695 51.60018921 -355.64956665 2 0 -2 
21 1 1 -1.00000000 129.10000610 418.93377399 49.48777008 -356.56605911 2 0 -2 
22 1 1 -1.00000000 129.10000610 415.55649984 47.94606400 -357.56088257 2 0 -2 
23 1 2 1.00000000 128.19999695 414.53122288 44.66314316 -359.29891968 2 0 -2 
24 1 1 -1.00000000 129.10000610 417.20468855 42.46033859 -360.56923676 2 0 -2 
25 1 1 -1.00000000 129.10000610 420.33898020 42.59251785 -363.09927750 2 0 -2 
26 1 2 1.00000000 128.19999695 423.09874058 45.43835831 -363.06397247 2 0 -2 
27 1 2 1.00000000 128.19999695 425.24706650 46.56449509 -359.70080185 2 0 -2 
28 1 2 1.00000000 128.19999695 428.05227470 45.62277603 -357.38870621 2 0 -2 
29 1 2 1.00000000 128.19999695 427.53990746 46.45878220 -353.51968384 2 0 -2 
30 1 2 1.00000000 128.19999695 425.75419617 46.20308304 -350.12309265 2 0 -2 
31 1 1 -1.00000000 129.10000610 426.16893959 47.92820358 -346.72649384 2 0 -2 
32 1 1 -1.00000000 129.10000610 423.04078007 50.13587189 -347.27951813 2 0 -2 
33 1 1 -1.00000000 129.10000610 419.35391140 50.68569946 -346.63533020 2 0 -2 
34 1 2 1.00000000 128.19999695 418.10675192 47.38031387 -346.69466400 2 0 -2 
35 1 2 1.00000000 128.19999695 415.00082922 47.36297226 -344.25489807 2 0 -2 
36 1 2 1.00000000 128.19999695 413.15833044 46.02956009 -340.91291046 2 0 -2 
37 1 1 -1.00000000 129.10000610 412.66982055 48.83597946 -338.28290558 2 0 -2 
38 1 2 1.00000000 128.19999695 415.84990263 49.34259033 -335.78717041 2 0 -2 
39 1 1 -1.00000000 129.10000610 417.29678750 49.34957123 -332.26343536 2 0 -2 
40 1 1 -1.00000000 129.10000610 420.55568647 48.16712189 -332.76721954 2 0 -2 
41 1 1 -1.00000000 129.10000610 423.92842484 47.92121124 -334.97707367 2 0 -2 
42 1 2 1.00000000 128.19999695 426.20524788 50.98175049 -334.55136108 2 0 -2 
43 1 1 -1.00000000 129.10000610 428.46583080 51.36040115 -337.56151581 2 0 -2 
44 1 2 1.00000000 128.19999695 430.51063538 49.26006699 -340.46630096 2 0 -2 
45 1 2 1.00000000 128.19999695 431.95209122 45.77384567 -341.11899567 2 0 -2 
46 1 2 1.00000000 128.19999695 433.13670349 42.23386383 -340.80908203 2 0 -2 
47 1 1 -1.00000000 129.10000610 434.28994179 38.82659149 -342.26986694 2 0 -2 
48 1 2 1.00000000 128.19999695 436.86793900 37.58205414 -344.91717529 2 0 -2 
49 1 1 -1.00000000 129.10000610 437.43868256 35.73785400 -348.54419708 2 0 -2 
50 1 2 1.00000000 128.19999695 435.72828484 33.32231140 -351.18807983 2 0 -2 
51 2 2 1.00000000 128.19999695 510.40903473 499.51347351 -239.89185333 2 2 -1 
52 2 1 -1.00000000 129.10000610 509.76271820 495.71691132 -240.39645767 2 2 -1 
53 2 2 1.00000000 128.19999695 509.63056183 494.34458923 -244.40134048 2 2 -1 
54 2 2 1.00000000 128.19999695 511.50624847 495.55554199 -247.69215393 2 2 -1 
55 2 2 1.00000000 128.19999695 513.92346191 497.61035919 -249.66819382 2 2 -1 
56 2 1 -1.00000000 129.10000610 512.79355621 499.41585541 -252.92167282 2 2 -1 
57 2 2 1.00000000 128.19999695 511.04081726 497.78738403 -256.13660431 2 2 -1 
58 2 1 -1.00000000 129.10000610 509.26137543 494.65151978 -254.82116318 2 2 -1 
59 2 1 -1.00000000 129.10000610 509.05898285 491.74643707 -252.18474960 2 2 -1 
60 2 1 -1.00000000 129.10000610 507.98193359 488.50237274 -250.42523193 2 2 -1 
61 2 2 1.00000000 128.19999695 506.38364410 486.87737274 -247.34295273 2 2 -1 
62 2 1 -1.00000000 129.10000610 502.76940155 486.74265289 -245.79269791 2 2 -1 
63 2 1 -1.00000000 129.10000610 500.52859497 489.16556549 -247.43720245 2 2 -1 
64 2 1 -1.00000000 129.10000610 502.83209229 492.29779816 -247.39512634 2 2 -1 
65 2 2 1.00000000 128.19999695 503.10213470 495.32555389 -245.60921860 2 2 -1 
66 2 2 1.00000000 128.19999695 503.43177032 495.26742554 -241.71188354 2 2 -1 
67 2 1 -1.00000000 129.10000610 504.58632660 498.69141388 -240.37476349 2 2 -1 
68 2 1 -1.00000000 129.10000610 501.98078918 501.58647156 -240.94025421 2 2 -1 
69 2 2 1.00000000 128.19999695 498.54228210 502.94260406 -239.80630493 2 2 -1 
70 2 1 -1.00000000 129.10000610 496.17303467 503.19940948 -236.95164871 2 2 -1 
71 2 1 -1.00000000 129.10000610 493.95460510 501.32518005 -234.65637970 2 2 -1 
72 2 1 -1.00000000 129.10000610 491.97607422 499.69549561 -231.49844551 2 2 -1 
73 2 2 1.00000000 128.19999695 492.23165131 497.14497375 -228.71230125 2 2 -1 
74 2 1 -1.00000000 129.10000610 491.89657593 493.62524414 -227.02904129 2 2 -1 
75 2 1 -1.00000000 129.10000610 492.73542786 490.05499268 -225.26248360 2 2 -1 
76 2 2 1.00000000 128.19999695 492.69814301 487.33622742 -222.92537498 2 2 -1 
77 2 2 1.00000000 128.19999695 494.85598755 485.25322723 -220.95971489 2 2 -1 
78 2 2 1.00000000 128.19999695 494.71996307 485.57992554 -217.33173847 2 2 -1 
79 2 2 1.00000000 128.19999695 497.91007233 486.12455750 -214.60247231 2 2 -1 
80 2 2 1.00000000 128.19999695 500.80883026 488.71912384 -215.38632965 2 2 -1 
81 2 1 -1.00000000 129.10000610 504.34068298 487.10229492 -215.73745632 2 2 -1 
82 2 1 -1.00000000 129.10000610 505.57574463 484.02727509 -216.52657413 2 2 -1 
83 2 1 -1.00000000 129.10000610 508.70472717 483.14209747 -218.98706150 2 2 -1 
84 2 2 1.00000000 128.19999695 510.89896393 482.65542603 -221.80570126 2 2 -1 
85 2 2 1.00000000 128.19999695 513.99555206 484.26231384 -221.87406158 2 2 -1 
86 2 2 1.00000000 128.19999695 515.34019470 486.94520569 -224.33541298 2 2 -1 
87 2 1 -1.00000000 129.10000610 515.33412170 490.83580017 -225.68051147 2 2 -1 
88 2 2 1.00000000 128.19999695 511.83438110 492.72654724 -225.66249084 2 2 -1 
89 2 1 -1.00000000 129.10000610 513.44149780 495.79502106 -224.78329086 2 2 -1 
90 2 1 -1.00000000 129.10000610 512.26194763 498.07907867 -221.87212467 2 2 -1 
91 2 1 -1.00000000 129.10000610 511.83210754 497.86991882 -217.95509815 2 2 -1 
92 2 2 1.00000000 128.19999695 514.38546753 495.86569977 -216.41011620 2 2 -1 
93 2 1 -1.00000000 129.10000610 513.83967590 494.07618713 -213.14208269 2 2 -1 
94 2 2 1.00000000 128.19999695 510.79358673 493.62682343 -210.92560554 2 2 -1 
95 2 2 1.00000000 128.19999695 510.24947357 493.60634613 -207.08851069 2 2 -1 
96 2 2 1.00000000 128.19999695 508.34111023 490.27735901 -205.94549525 2 2 -1 
97 2 1 -1.00000000 129.10000610 509.90074921 487.42037201 -207.13416018 2 2 -1 
98 2 2 1.00000000 128.19999695 507.98792267 485.21970367 -209.74668050 2 2 -1 
99 2 1 -1.00000000 129.10000610 508.57524872 481.49528503 -210.04341960 2 2 -1 
100 2 2 1.00000000 128.19999695 511.81212616 479.80463409 -209.66488314 2 2 -1 
101 3 2 1.00000000 128.19999695 317.40670013 -70.39591217 -6.06152058 2 0 0 
102 3 1 -1.00000000 129.10000610 316.72124481 -66.82205200 -6.52641392 2 0 0 
103 3 2 1.00000000 128.19999695 318.74322510 -63.94708252 -6.57092047 2 0 0 
104 3 2 1.00000000 128.19999695 318.95463562 -62.50621414 -2.96557832 2 0 0 
105 3 2 1.00000000 128.19999695 315.88401031 -63.25791550 -1.10446572 2 0 0 
106 3 1 -1.00000000 129.10000610 312.88040161 -60.94792557 -1.00765789 2 0 0 
107 3 2 1.00000000 128.19999695 309.62024689 -59.64703751 0.31105208 1 0 0 
108 3 1 -1.00000000 129.10000610 311.35983276 -57.79384232 3.51946282 2 0 0 
109 3 1 -1.00000000 129.10000610 313.63105774 -55.06082916 1.90960419 2 0 0 
110 3 1 -1.00000000 129.10000610 317.72827911 -55.50890350 1.70868826 2 0 0 
111 3 2 1.00000000 128.19999695 320.56253815 -55.79213333 -0.65800399 2 0 0 
112 3 1 -1.00000000 129.10000610 324.23439026 -55.87397766 0.34291279 2 0 0 
113 3 1 -1.00000000 129.10000610 327.43699646 -54.45834351 -1.62900782 2 0 0 
114 3 1 -1.00000000 129.10000610 328.72914886 -51.28336334 -0.44341466 2 0 0 
115 3 2 1.00000000 128.19999695 325.65947723 -49.39926147 0.10269951 2 0 0 
116 3 2 1.00000000 128.19999695 323.98954773 -46.72454071 -2.14167547 2 0 0 
117 3 1 -1.00000000 129.10000610 324.88002014 -42.99699020 -0.26932541 2 0 0 
118 3 1 -1.00000000 129.10000610 326.53157806 -42.39731216 3.22606587 2 0 0 
119 3 2 1.00000000 128.19999695 325.64697266 -42.30664825 6.63997316 2 0 0 
120 3 1 -1.00000000 129.10000610 322.55582428 -43.33560944 8.49968529 2 0 0 
121 3 1 -1.00000000 129.10000610 319.32975769 -41.34568024 7.90617085 2 0 0 
122 3 1 -1.00000000 129.10000610 319.51718903 -38.68037796 4.62293911 2 0 0 
123 3 2 1.00000000 128.19999695 315.96443176 -37.34725189 4.67334509 2 0 0 
124 3 1 -1.00000000 129.10000610 312.57682800 -36.69098282 2.72176385 2 0 0 
125 3 1 -1.00000000 129.10000610 309.95610809 -39.01449203 1.23466432 1 0 0 
126 3 2 1.00000000 128.19999695 310.61074066 -42.71663666 2.00083041 1 0 0 
127 3 2 1.00000000 128.19999695 312.67869568 -44.41443253 4.58985186 2 0 0 
128 3 2 1.00000000 128.19999695 315.23950195 -46.10818100 6.93168640 2 0 0 
129 3 2 1.00000000 128.19999695 315.01235962 -49.99742889 5.75360203 2 0 0 
130 3 2 1.00000000 128.19999695 317.11753082 -53.02125549 7.20094156 2 0 0 
131 3 1 -1.00000000 129.10000610 318.41776276 -52.85633087 10.89108753 2 0 0 
132 3 1 -1.00000000 129.10000610 317.31611633 -51.68207169 14.15275383 2 0 0 
133 3 1 -1.00000000 129.10000610 318.42140198 -48.46309280 16.06099510 2 0 0 
134 3 2 1.00000000 128.19999695 321.88482666 -46.86668015 15.88326931 2 0 0 
135 3 2 1.00000000 128.19999695 322.30352783 -43.33489227 17.21582603 2 0 0 
136 3 2 1.00000000 128.19999695 325.30594635 -42.10500336 19.29487801 2 0 0 
137 3 1 -1.00000000 129.10000610 325.87260437 -41.30862045 23.28235435 2 0 0 
138 3 2 1.00000000 128.19999695 327.27835846 -41.35439682 26.82932091 2 0 0 
139 3 1 -1.00000000 129.10000610 329.21841431 -44.81592178 27.14169693 2 0 0 
140 3 1 -1.00000000 129.10000610 329.38890076 -47.23774338 24.35887337 2 0 0 
141 3 1 -1.00000000 129.10000610 328.47104645 -50.04251862 26.72621346 2 0 0 
142 3 2 1.00000000 128.19999695 331.34800720 -50.99890518 29.10751152 2 0 0 
143 3 1 -1.00000000 129.10000610 334.31296539 -52.31716919 26.90541649 2 0 0 
144 3 2 1.00000000 128.19999695 337.87258911 -51.14653015 27.75285339 2 0 0 
145 3 2 1.00000000 128.19999695 338.00053406 -49.61865997 30.97183418 2 0 0 
146 3 2 1.00000000 128.19999695 337.98414612 -47.07578278 33.58005142 2 0 0 
147 3 1 -1.00000000 129.10000610 337.04764557 -43.59199142 34.84857178 2 0 0 
148 3 2 1.00000000 128.19999695 334.22785950 -41.38899612 36.72656631 2 0 0 
149 3 1 -1.00000000 129.10000610 331.05259705 -43.52125549 37.65569687 2 0 0 
150 3 2 1.00000000 128.19999695 330.22736359 -45.20023346 34.72103500 2 0 0 
151 4 2 1.00000000 128.19999695 -291.27120972 275.54580688 25.09850311 -1 1 0 
152 4 1 -1.00000000 129.10000610 -290.28616333 278.22492218 27.58626747 -1 1 0 
153 4 2 1.00000000 128.19999695 -288.84911346 281.11555481 30.17805481 -1 1 0 
154 4 2 1.00000000 128.19999695 -285.41994476 280.36109161 32.00902176 -1 1 0 
155 4 2 1.00000000 128.19999695 -285.10083008 276.43767548 32.80442047 -1 1 0 
156 4 1 -1.00000000 129.10000610 -284.33743286 273.03503418 31.19370461 -1 1 0 
157 4 2 1.00000000 128.19999695 -282.07498169 272.91396332 28.22378349 -1 1 0 
158 4 1 -1.00000000 129.10000610 -279.71623993 275.76348877 27.74296188 -1 1 0 
159 4 1 -1.00000000 129.10000610 -275.94729614 274.56879425 28.54732323 -1 1 0 
160 4 1 -1.00000000 129.10000610 -273.75772095 275.67975616 25.82131004 -1 1 0 
161 4 2 1.00000000 128.19999695 -274.42906952 276.52752686 22.06254387 -1 1 0 
162 4 1 -1.00000000 129.10000610 -277.59716034 275.95195770 19.83062363 -1 1 0 
163 4 1 -1.00000000 129.10000610 -281.33835602 274.54238892 20.02647209 -1 1 0 
164 4 1 -1.00000000 129.10000610 -282.85263062 277.34477234 21.94084740 -1 1 0 
165 4 2 1.00000000 128.19999695 -286.72428894 278.19291687 20.76035690 -1 1 0 
166 4 2 1.00000000 128.19999695 -289.49751282 280.45543671 21.37612724 -1 1 0 
167 4 1 -1.00000000 129.10000610 -288.43072510 284.26502991 20.88598442 -1 1 0 
168 4 1 -1.00000000 129.10000610 -290.49055481 286.78639221 23.12264252 -1 1 0 
169 4 2 1.00000000 128.19999695 -292.98186493 284.46752167 25.05457687 -1 1 0 
170 4 1 -1.00000000 129.10000610 -294.81597137 284.59698486 28.57688904 -1 1 0 
171 4 1 -1.00000000 129.10000610 -296.76250458 285.80419159 31.54425049 -1 1 0 
172 4 1 -1.00000000 129.10000610 -299.80227661 288.13840485 31.31422234 -1 1 0 
173 4 2 1.00000000 128.19999695 -303.09667969 289.46131897 32.17973328 -1 1 0 
174 4 1 -1.00000000 129.10000610 -304.78569031 286.22397614 31.83898926 -1 1 0 
175 4 1 -1.00000000 129.10000610 -304.82267761 282.54264832 32.77986908 -1 1 0 
176 4 2 1.00000000 128.19999695 -305.52008057 280.69510651 36.14336014 -1 1 0 
177 4 2 1.00000000 128.19999695 -306.27930450 276.98778534 36.38513565 -1 1 0 
178 4 2 1.00000000 128.19999695 -303.82563019 274.36741638 35.19670105 -1 1 0 
179 4 2 1.00000000 128.19999695 -302.12167358 273.91006470 32.14040375 -1 1 0 
180 4 2 1.00000000 128.19999695 -300.26937866 272.00772858 28.96466827 -1 1 0 
181 4 1 -1.00000000 129.10000610 -302.21066284 273.71037292 25.99098778 -1 1 0 
182 4 1 -1.00000000 129.10000610 -304.57132721 276.24735260 26.27598381 -1 1 0 
183 4 1 -1.00000000 129.10000610 -308.36043549 275.29561615 25.16483116 -1 1 0 
184 4 2 1.00000000 128.19999695 -309.92992401 276.70360565 22.24481010 -1 1 0 
185 4 2 1.00000000 128.19999695 -313.69915009 276.97587585 22.53930473 -2 1 0 
186 4 2 1.00000000 128.19999695 -315.04083252 274.47393036 25.16927338 -2 1 0 
187 4 1 -1.00000000 129.10000610 -317.31469727 271.74614716 24.27415466 -2 1 0 
188 4 2 1.00000000 128.19999695 -317.71870422 268.06406403 22.79343605 -2 1 0 
189 4 1 -1.00000000 129.10000610 -318.61672211 266.39027023 25.93816757 -2 1 0 
190 4 1 -1.00000000 129.10000610 -316.24362183 264.21776199 27.89074326 -2 1 0 
191 4 1 -1.00000000 129.10000610 -316.65279388 261.22176743 30.18645096 -2 1 0 
192 4 2 1.00000000 128.19999695 -316.03167725 258.14690781 28.03274727 -2 1 0 
193 4 1 -1.00000000 129.10000610 -318.27146149 257.15178299 24.90421486 -2 1 0 
194 4 2 1.00000000 128.19999695 -318.58953094 259.11793518 21.84753990 -2 1 0 
195 4 2 1.00000000 128.19999695 -315.44381714 261.51723099 21.37104034 -2 1 0 
196 4 2 1.00000000 128.19999695 -313.50603485 264.09890747 19.36933327 -2 1 0 
197 4 1 -1.00000000 129.10000610 -315.60133362 265.50258255 16.34824944 -2 1 0 
198 4 2 1.00000000 128.19999695 -313.80181885 267.87364197 13.67431831 -2 1 0 
199 4 1 -1.00000000 129.10000610 -313.63534546 266.35502243 9.70819759 -2 1 0 
200 4 2 1.00000000 128.19999695 -315.92964935 267.62984848 6.59426975 -2 1 0 
201 5 2 1.00000000 128.19999695 -247.30806351 -189.37192917 -153.23128128 -1 -1 -1 
202 5 1 -1.00000000 129.10000610 -248.59787369 -188.09534454 -156.56717300 -1 -1 -1 
203 5 2 1.00000000 128.19999695 -249.14509964 -190.62190437 -159.29672241 -1 -1 -1 
204 5 2 1.00000000 128.19999695 -251.13875580 -193.28137207 -161.08003235 -1 -1 -1 
205 5 2 1.00000000 128.19999695 -254.25587845 -194.45304871 -163.14954758 -1 -1 -1 
206 5 1 -1.00000000 129.10000610 -256.32966232 -191.75426197 -164.53795242 -1 -1 -1 
207 5 2 1.00000000 128.19999695 -259.63475418 -190.67171860 -163.24808884 -1 -1 -1 
208 5 1 -1.00000000 129.10000610 -262.30537796 -188.06773186 -163.20983124 -1 -1 -1 
209 5 1 -1.00000000 129.10000610 -261.63066864 -184.64762497 -162.01889038 -1 -1 -1 
210 5 1 -1.00000000 129.10000610 -262.16941071 -184.01354408 -158.39918137 -1 -1 -1 
211 5 2 1.00000000 128.19999695 -261.95797348 -184.35441780 -154.52465057 -1 -1 -1 
212 5 1 -1.00000000 129.10000610 -265.62232208 -183.41284943 -153.02408600 -1 -1 -1 
213 5 1 -1.00000000 129.10000610 -268.96477890 -183.74200821 -151.18335342 -1 -1 -1 
214 5 1 -1.00000000 129.10000610 -271.95838165 -186.34389305 -151.31546402 -1 -1 -1 
215 5 2 1.00000000 128.19999695 -275.39527893 -187.07861710 -150.78748703 -1 -1 -1 
216 5 2 1.00000000 128.19999695 -277.67077637 -188.92078400 -148.34812546 -1 -1 -1 
217 5 1 -1.00000000 129.10000610 -279.47331238 -186.78779793 -145.61222839 -1 -1 -1 
218 5 1 -1.00000000 129.10000610 -280.29518127 -189.13032913 -143.07916260 -1 -1 -1 
219 5 2 1.00000000 128.19999695 -282.85462189 -189.97780418 -140.42359161 -1 -1 -1 
220 5 1 -1.00000000 129.10000610 -285.23650360 -192.81045341 -141.11421967 -1 -1 -1 
221 5 1 -1.00000000 129.10000610 -287.98740387 -192.27199459 -143.48868561 -1 -1 -1 
222 5 1 -1.00000000 129.10000610 -290.74832916 -190.49763298 -145.94391251 -1 -1 -1 
223 5 2 1.00000000 128.19999695 -292.41088104 -187.92247581 -143.71186829 -1 -1 -1 
224 5 1 -1.00000000 129.10000610 -291.98966217 -186.64953423 -140.03452301 -1 -1 -1 
225 5 1 -1.00000000 129.10000610 -289.08013153 -183.98057747 -139.75493622 -1 -1 -1 
226 5 2 1.00000000 128.19999695 -286.06311035 -182.93398094 -142.20825195 -1 -1 -1 
227 5 2 1.00000000 128.19999695 -286.46315002 -179.78781319 -144.18500900 -1 -1 -1 
228 5 2 1.00000000 128.19999695 -287.99327087 -177.16660500 -146.58903503 -1 -1 -1 
229 5 2 1.00000000 128.19999695 -288.87396240 -178.07495880 -149.85432816 -1 -1 -1 
230 5 2 1.00000000 128.19999695 -289.61727142 -177.97047615 -153.45973587 -1 -1 -1 
231 5 1 -1.00000000 129.10000610 -291.05725861 -181.46552658 -153.45523453 -1 -1 -1 
232 5 1 -1.00000000 129.10000610 -291.85297394 -185.00884628 -155.29354477 -1 -1 -1 
233 5 1 -1.00000000 129.10000610 -293.65743256 -188.04733658 -156.78286743 -1 -1 -1 
234 5 2 1.00000000 128.19999695 -295.03463745 -188.59498024 -160.32790375 -1 -1 -1 
235 5 2 1.00000000 128.19999695 -296.98133087 -185.63092232 -162.04135513 -1 -1 -1 
236 5 2 1.00000000 128.19999695 -295.97316742 -181.93402290 -161.55599213 -1 -1 -1 
237 5 1 -1.00000000 129.10000610 -296.23299408 -181.53693199 -157.41903305 -1 -1 -1 
238 5 2 1.00000000 128.19999695 -298.30041504 -183.66960716 -154.96693802 -1 -1 -1 
239 5 1 -1.00000000 129.10000610 -300.88447571 -186.56864357 -155.29169083 -1 -1 -1 
240 5 1 -1.00000000 129.10000610 -303.50485992 -188.19589233 -157.34055710 -1 -1 -1 
241 5 1 -1.00000000 129.10000610 -305.09990692 -190.92899513 -155.22355270 -1 -1 -1 
242 5 2 1.00000000 128.19999695 -306.00100708 -189.40963554 -151.52867508 -1 -1 -1 
243 5 1 -1.00000000 129.10000610 -306.02459717 -185.48825645 -151.01750946 -1 -1 -1 
244 5 2 1.00000000 128.19999695 -306.52267456 -183.07995605 -153.83495331 -1 -1 -1 
245 5 2 1.00000000 128.19999695 -309.18839264 -183.62594604 -156.29710388 -1 -1 -1 
246 5 2 1.00000000 128.19999695 -312.18856049 -185.15278816 -154.17962646 -2 -1 -1 
247 5 1 -1.00000000 129.10000610 -314.69987488 -187.03608704 -151.69093323 -2 -1 -1 
248 5 2 1.00000000 128.19999695 -315.22914886 -184.25607872 -148.81505966 -2 -1 -1 
249 5 1 -1.00000000 129.10000610 -316.81598663 -181.15999413 -147.59733200 -2 -1 -1 
250 5 2 1.00000000 128.19999695 -315.08047485 -178.54814148 -150.04393387 -2 -1 -1 
251 6 2 1.00000000 128.19999695 343.48355103 -372.21271133 -46.61361694 2 -2 0 
252 6 1 -1.00000000 129.10000610 342.13887787 -370.36842346 -49.63615799 2 -2 0 
253 6 2 1.00000000 128.19999695 340.11385345 -367.50279617 -49.34551620 2 -2 0 
254 6 2 1.00000000 128.19999695 341.51860809 -364.50767136 -51.48286057 2 -2 0 
255 6 2 1.00000000 128.19999695 345.37146759 -364.07839203 -51.59073639 2 -2 0 
256 6 1 -1.00000000 129.10000610 347.08177948 -367.01328278 -53.20613480 2 -2 0 
257 6 2 1.00000000 128.19999695 350.03034973 -365.03599548 -54.87284088 2 -2 0 
258 6 1 -1.00000000 129.10000610 349.52162170 -364.78907394 -58.67999268 2 -2 0 
259 6 1 -1.00000000 129.10000610 349.01168060 -363.87528610 -62.36591721 2 -2 0 
260 6 1 -1.00000000 129.10000610 347.98199463 -361.73009872 -65.25093842 2 -2 0 
261 6 2 1.00000000 128.19999695 351.35418320 -359.54607391 -65.40869141 2 -2 0 
262 6 1 -1.00000000 129.10000610 354.27334595 -357.20116425 -64.31443024 2 -2 0 
263 6 1 -1.00000000 129.10000610 356.07520676 -356.73342896 -60.78947449 2 -2 0 
264 6 1 -1.00000000 129.10000610 359.73374557 -357.59908295 -59.56853867 2 -2 0 
265 6 2 1.00000000 128.19999695 361.67285538 -360.78478622 -60.09972000 2 -2 0 
266 6 2 1.00000000 128.19999695 359.63400269 -362.48380280 -57.02516556 2 -2 0 
267 6 1 -1.00000000 129.10000610 361.51208878 -364.39575195 -54.00270081 2 -2 0 
268 6 1 -1.00000000 129.10000610 358.73100662 -366.38204575 -52.26036453 2 -2 0 
269 6 2 1.00000000 128.19999695 358.50088120 -368.38786316 -48.79206085 2 -2 0 
270 6 1 -1.00000000 129.10000610 360.89414215 -371.30168152 -49.06172180 2 -2 0 
271 6 1 -1.00000000 129.10000610 361.11292267 -374.42505264 -47.14800644 2 -2 0 
272 6 1 -1.00000000 129.10000610 360.88644791 -377.49571609 -49.86263657 2 -2 0 
273 6 2 1.00000000 128.19999695 362.27678680 -376.80406570 -53.35552597 2 -2 0 
274 6 1 -1.00000000 129.10000610 360.20862198 -377.78205872 -56.32018661 2 -2 0 
275 6 1 -1.00000000 129.10000610 358.97550964 -378.72591019 -59.69237900 2 -2 0 
276 6 2 1.00000000 128.19999695 359.31643295 -375.47572708 -62.02550507 2 -2 0 
277 6 2 1.00000000 128.19999695 356.34549713 -374.92540741 -64.25389099 2 -2 0 
278 6 2 1.00000000 128.19999695 353.59955978 -377.21467972 -62.68015289 2 -2 0 
279 6 2 1.00000000 128.19999695 352.67656326 -375.81622696 -59.22968674 2 -2 0 
280 6 2 1.00000000 128.19999695 353.03664398 -378.61213684 -56.40426636 2 -2 0 
281 6 1 -1.00000000 129.10000610 351.89792633 -382.49782944 -56.91265106 2 -2 0 
282 6 1 -1.00000000 129.10000610 355.07455826 -384.19743347 -57.81228638 2 -2 0 
283 6 1 -1.00000000 129.10000610 358.05785370 -386.20129204 -57.79785538 2 -2 0 
284 6 2 1.00000000 128.19999695 357.40512848 -389.71087456 -56.06532288 2 -2 0 
285 6 2 1.00000000 128.19999695 357.22381973 -393.28176880 -54.74022675 2 -2 0 
286 6 2 1.00000000 128.19999695 353.69121170 -393.16585350 -53.35856247 2 -2 0 
287 6 1 -1.00000000 129.10000610 352.97261047 -393.79568481 -49.49206543 2 -2 0 
288 6 2 1.00000000 128.19999695 354.22942352 -397.33945465 -49.69111252 2 -2 0 
289 6 1 -1.00000000 129.10000610 352.84144211 -400.86643982 -50.90016556 2 -2 0 
290 6 1 -1.00000000 129.10000610 349.60253906 -403.39276409 -50.45498276 2 -2 0 
291 6 1 -1.00000000 129.10000610 347.38798523 -406.49826527 -49.42142487 2 -2 0 
292 6 2 1.00000000 128.19999695 346.85149384 -405.25121021 -45.70212936 2 -2 0 
293 6 1 -1.00000000 129.10000610 344.24170685 -407.43267012 -44.01058197 2 -2 0 
294 6 2 1.00000000 128.19999695 343.94088745 -411.26019144 -43.41800308 2 -2 0 
295 6 2 1.00000000 128.19999695 342.24616241 -413.41211343 -40.70396805 2 -2 0 
296 6 2 1.00000000 128.19999695 339.64286041 -416.07177281 -41.41715240 2 -2 0 
297 6 1 -1.00000000 129.10000610 339.88945007 -419.56191492 -42.53712463 2 -2 0 
298 6 2 1.00000000 128.19999695 338.33715057 -421.58139896 -45.61939240 2 -2 0 
299 6 1 -1.00000000 129.10000610 339.95500183 -423.95897865 -48.27103043 2 -2 0 
300 6 2 1.00000000 128.19999695 342.20240021 -425.91936874 -50.97068787 2 -2 0 
301 7 2 1.00000000 128.19999695 -100.48848724 -46.37974548 -925.81068420 0 0 -4 
302 7 1 -1.00000000 129.10000610 -98.97438049 -48.40671539 -922.91778564 0 0 -4 
303 7 2 1.00000000 128.19999695 -96.35579681 -50.42673111 -920.97059631 0 0 -4 
304 7 2 1.00000000 128.19999695 -95.29027557 -54.00350571 -921.92727661 0 0 -4 
305 7 2 1.00000000 128.19999695 -96.31611633 -57.38486862 -920.25823212 0 0 -4 
306 7 1 -1.00000000 129.10000610 -96.95564270 -55.60876083 -916.72878265 0 0 -4 
307 7 2 1.00000000 128.19999695 -100.48294830 -54.19237900 -916.93917084 0 0 -4 
308 7 1 -1.00000000 129.10000610 -101.15318298 -51.48617172 -914.12091064 0 0 -4 
309 7 1 -1.00000000 129.10000610 -98.95718384 -53.60764313 -911.31608582 0 0 -4 
310 7 1 -1.00000000 129.10000610 -96.32835388 -55.13742447 -909.24883270 0 0 -4 
311 7 2 1.00000000 128.19999695 -95.28005981 -58.81257248 -909.11872864 0 0 -4 
312 7 1 -1.00000000 129.10000610 -96.28820038 -61.88713074 -911.21791840 0 0 -4 
313 7 1 -1.00000000 129.10000610 -99.69356537 -63.36262894 -909.77075195 0 0 -4 
314 7 1 -1.00000000 129.10000610 -100.67593384 -65.93822479 -912.21191406 0 0 -4 
315 7 2 1.00000000 128.19999695 -103.14896393 -68.11685944 -913.99546814 0 0 -4 
316 7 2 1.00000000 128.19999695 -105.69791412 -70.20832062 -916.11259460 -1 0 -4 
317 7 1 -1.00000000 129.10000610 -106.21942902 -70.52418518 -919.72753906 -1 0 -4 
318 7 1 -1.00000000 129.10000610 -108.73329926 -72.27852631 -921.58106995 -1 0 -4 
319 7 2 1.00000000 128.19999695 -111.34261322 -75.35414124 -921.56380463 -1 0 -4 
320 7 1 -1.00000000 129.10000610 -114.55479431 -74.18311310 -922.70958710 -1 0 -4 
321 7 1 -1.00000000 129.10000610 -116.90365601 -72.66362762 -920.47448730 -1 0 -4 
322 7 1 -1.00000000 129.10000610 -119.28539276 -69.58602905 -921.70341492 -1 0 -4 
323 7 2 1.00000000 128.19999695 -122.47438049 -71.54027557 -922.63297272 -1 0 -4 
324 7 1 -1.00000000 129.10000610 -123.20316315 -73.71899414 -920.00141144 -1 0 -4 
325 7 1 -1.00000000 129.10000610 -123.46469116 -77.11538696 -921.50814056 -1 0 -4 
326 7 2 1.00000000 128.19999695 -125.99521637 -79.55156708 -922.53893280 -1 0 -4 
327 7 2 1.00000000 128.19999695 -127.00605774 -81.75678253 -925.92675781 -1 0 -4 
328 7 2 1.00000000 128.19999695 -126.04772949 -84.79186249 -928.37648010 -1 0 -4 
329 7 2 1.00000000 128.19999695 -122.65424347 -86.00543213 -930.01283264 -1 0 -4 
330 7 2 1.00000000 128.19999695 -119.36745453 -85.41676331 -928.38249207 -1 0 -4 
331 7 1 -1.00000000 129.10000610 -116.00910187 -84.56735992 -926.82013702 -1 0 -4 
332 7 1 -1.00000000 129.10000610 -113.98545074 -82.72150421 -929.67221832 -1 0 -4 
333 7 1 -1.00000000 129.10000610 -110.51948547 -81.63616943 -931.35840607 -1 0 -4 
334 7 2 1.00000000 128.19999695 -108.37261963 -82.40639496 -934.38790131 -1 0 -5 
335 7 2 1.00000000 128.19999695 -105.53533173 -85.08620453 -933.69172668 -1 0 -5 
336 7 2 1.00000000 128.19999695 -103.32244873 -87.25400543 -936.44123840 0 0 -5 
337 7 1 -1.00000000 129.10000610 -105.75850677 -89.97431946 -937.61467743 -1 0 -5 
338 7 2 1.00000000 128.19999695 -108.38641357 -90.62825775 -940.25714111 -1 0 -5 
339 7 1 -1.00000000 129.10000610 -107.34939575 -87.44721985 -942.32921600 -1 0 -5 
340 7 1 -1.00000000 129.10000610 -108.31493378 -84.02870941 -942.83183289 -1 0 -5 
341 7 1 -1.00000000 129.10000610 -110.00410461 -81.08131409 -943.11009216 -1 0 -5 
342 7 2 1.00000000 128.19999695 -113.77996063 -80.22005463 -943.81448364 -1 0 -5 
343 7 1 -1.00000000 129.10000610 -117.55735016 -80.94065094 -943.41891479 -1 0 -5 
344 7 2 1.00000000 128.19999695 -119.88054657 -83.59952545 -945.26240540 -1 0 -5 
345 7 2 1.00000000 128.19999695 -123.20632935 -82.52016449 -947.36827087 -1 0 -5 
346 7 2 1.00000000 128.19999695 -124.42040253 -79.28478241 -949.05137634 -1 0 -5 
347 7 1 -1.00000000 129.10000610 -126.24562836 -78.36135101 -952.34832764 -1 0 -5 
348 7 2 1.00000000 128.19999695 -127.50315094 -74.74954987 -952.30804443 -1 0 -5 
349 7 1 -1.00000000 129.10000610 -125.31614685 -73.95343781 -955.72011566 -1 0 -5 
350 7 2 1.00000000 128.19999695 -123.85012054 -73.78862000 -959.29949188 -1 0 -5 
351 8 2 1.00000000 128.19999695 14.97045708 -106.46041107 557.86428070 0 -1 3 
352 8 1 -1.00000000 129.10000610 17.11098480 -104.06754303 560.70015717 0 -1 3 
353 8 2 1.00000000 128.19999695 17.07873344 -100.92912292 562.11811447 0 0 3 
354 8 2 1.00000000 128.19999695 18.79534721 -100.85040283 565.94820404 0 0 3 
355 8 2 1.00000000 128.19999695 18.52103996 -99.52283478 569.41595459 0 0 3 
356 8 1 -1.00000000 129.10000610 20.74965477 -100.25571442 572.08756638 0 0 3 
357 8 2 1.00000000 128.19999695 22.52551651 -99.08969879 575.46114349 0 0 3 
358 8 1 -1.00000000 129.10000610 21.39665031 -96.17530823 577.15634918 0 0 3 
359 8 1 -1.00000000 129.10000610 20.45692444 -92.47202301 575.91734314 0 0 3 
360 8 1 -1.00000000 129.10000610 19.16260910 -90.43003845 572.96208954 0 0 3 
361 8 2 1.00000000 128.19999695 22.04841232 -91.24104309 570.24781418 0 0 3 
362 8 1 -1.00000000 129.10000610 24.92255020 -93.18347168 571.11434555 0 0 3 
363 8 1 -1.00000000 129.10000610 28.27060318 -94.41344452 570.57445526 0 0 3 
364 8 1 -1.00000000 129.10000610 31.09758377 -96.11064148 568.75286102 0 0 3 
365 8 2 1.00000000 128.19999695 32.10503769 -98.77067566 571.62591553 0 0 3 
366 8 2 1.00000000 128.19999695 31.70327568 -99.73278809 575.04183578 0 0 3 
367 8 1 -1.00000000 129.10000610 28.19016647 -100.40843201 576.73992920 0 0 3 
368 8 1 -1.00000000 129.10000610 26.89542007 -98.54106140 579.76449585 0 0 3 
369 8 2 1.00000000 128.19999695 26.79642105 -96.19253540 582.75623703 0 0 3 
370 8 1 -1.00000000 129.10000610 28.40680885 -93.10607147 584.43045425 0 0 3 
371 8 1 -1.00000000 129.10000610 31.86924744 -91.77056122 583.42193222 0 0 3 
372 8 1 -1.00000000 129.10000610 31.27924919 -88.51682281 585.57954788 0 0 3 