ITEM: TIMESTEP
40650000 
ITEM: NUMBER OF ATOMS 
25000 
ITEM: BOX BOUNDS pp pp pp 
-103.678017 103.678017 
-103.678017 103.678017 
-103.678017 103.678017 
ITEM: ATOMS id mol type q mass xu yu zu ix iy iz 
1 1 2 1.00000000 128.19999695 370.54719543 88.45139313 -295.59632111 2 0 -1 
2 1 1 -1.00000000 129.10000610 372.62480545 86.58560944 -298.46793365 2 0 -1 
3 1 2 1.00000000 128.19999695 374.63222122 86.52574158 -301.59182739 2 0 -1 
4 1 2 1.00000000 128.19999695 375.38887405 89.97541809 -302.96511841 2 0 -1 
5 1 2 1.00000000 128.19999695 378.79466248 91.49050140 -302.69568634 2 0 -1 
6 1 1 -1.00000000 129.10000610 381.79489517 90.08912659 -304.56732941 2 0 -1 
7 1 2 1.00000000 128.19999695 382.45697403 89.40599823 -308.39749146 2 0 -1 
8 1 1 -1.00000000 129.10000610 382.61099243 85.55556488 -309.08438873 2 0 -1 
9 1 1 -1.00000000 129.10000610 384.99927330 83.65139771 -306.78049469 2 0 -1 
10 1 1 -1.00000000 129.10000610 382.96158791 81.84806824 -304.19088745 2 0 -1 
11 1 2 1.00000000 128.19999695 384.19134521 78.05217743 -304.29876709 2 0 -1 
12 1 1 -1.00000000 129.10000610 387.67296600 76.45156860 -303.01779938 2 0 -1 
13 1 1 -1.00000000 129.10000610 388.69482231 73.09020233 -300.99028015 2 0 -1 
14 1 1 -1.00000000 129.10000610 390.51306725 71.45386505 -298.38098145 2 0 -1 
15 1 2 1.00000000 128.19999695 390.86826515 71.09234619 -294.73372650 2 0 -1 
16 1 2 1.00000000 128.19999695 393.54769135 70.24113464 -292.04726410 2 0 -1 
17 1 1 -1.00000000 129.10000610 394.60379601 66.83668518 -289.74288177 2 0 -1 
18 1 1 -1.00000000 129.10000610 396.36956406 67.61479950 -286.66252899 2 0 -1 
19 1 2 1.00000000 128.19999695 395.36191940 66.84272766 -282.63744354 2 0 -1 
20 1 1 -1.00000000 129.10000610 391.67035675 66.93660736 -282.75465393 2 0 -1 
21 1 1 -1.00000000 129.10000610 391.13039970 70.69350433 -283.39440918 2 0 -1 
22 1 1 -1.00000000 129.10000610 389.47488403 73.66065216 -282.89112091 2 0 -1 
23 1 2 1.00000000 128.19999695 386.67731094 73.81665039 -285.56634521 2 0 -1 
24 1 1 -1.00000000 129.10000610 385.28739357 73.19055939 -289.03433228 2 0 -1 
25 1 1 -1.00000000 129.10000610 383.35911179 72.11687469 -292.20833588 2 0 -1 
26 1 2 1.00000000 128.19999695 381.06308746 74.20940399 -293.76329803 2 0 -1 
27 1 2 1.00000000 128.19999695 378.91945267 72.66040039 -296.25188446 2 0 -1 
28 1 2 1.00000000 128.19999695 376.03754807 71.21831512 -298.41857910 2 0 -1 
29 1 2 1.00000000 128.19999695 373.51741791 69.06758118 -300.19231415 2 0 -1 
30 1 2 1.00000000 128.19999695 371.26843262 66.25044250 -298.55428314 2 0 -1 
31 1 1 -1.00000000 129.10000610 368.40672302 66.36107635 -301.25813293 2 0 -1 
32 1 1 -1.00000000 129.10000610 365.07479095 65.46034241 -302.73728180 2 0 -1 
33 1 1 -1.00000000 129.10000610 366.11167908 65.64545441 -306.66449738 2 0 -1 
34 1 2 1.00000000 128.19999695 366.05235291 65.43351746 -310.80117035 2 0 -1 
35 1 2 1.00000000 128.19999695 365.51791000 64.61201477 -314.62361908 2 0 -2 
36 1 2 1.00000000 128.19999695 364.48812485 62.23999786 -317.26776886 2 0 -2 
37 1 1 -1.00000000 129.10000610 366.62104416 61.86100006 -320.59816742 2 0 -2 
38 1 2 1.00000000 128.19999695 367.08296204 59.43029404 -323.50901794 2 0 -2 
39 1 1 -1.00000000 129.10000610 367.10613632 55.57857132 -322.32202911 2 0 -2 
40 1 1 -1.00000000 129.10000610 367.62278748 51.90297699 -323.58082581 2 0 -2 
41 1 1 -1.00000000 129.10000610 369.18776703 49.17740250 -325.19731140 2 0 -2 
42 1 2 1.00000000 128.19999695 367.96955490 47.71297836 -328.45055389 2 0 -2 
43 1 1 -1.00000000 129.10000610 364.95312881 45.47525024 -327.89704895 2 0 -2 
44 1 2 1.00000000 128.19999695 363.97177887 41.80105209 -326.59129333 2 0 -2 
45 1 2 1.00000000 128.19999695 361.41984558 41.56698990 -323.73648071 2 0 -2 
46 1 2 1.00000000 128.19999695 362.08820343 43.51316452 -320.58061981 2 0 -2 
47 1 1 -1.00000000 129.10000610 362.23253250 44.50410080 -316.78256989 2 0 -2 
48 1 2 1.00000000 128.19999695 362.37825775 48.19739151 -316.27816010 2 0 -2 
49 1 1 -1.00000000 129.10000610 363.37675095 51.81466675 -315.97550964 2 0 -2 
50 1 2 1.00000000 128.19999695 363.97433472 54.52641296 -313.53446960 2 0 -2 
51 2 2 1.00000000 128.19999695 530.67082977 404.80773163 -253.31177902 3 2 -1 
52 2 1 -1.00000000 129.10000610 531.19548035 407.16981506 -250.60404587 3 2 -1 
53 2 2 1.00000000 128.19999695 529.11631775 410.36576796 -250.20036316 3 2 -1 
54 2 2 1.00000000 128.19999695 526.28189087 411.22807431 -252.34687424 3 2 -1 
55 2 2 1.00000000 128.19999695 523.10705566 412.21703720 -250.71540451 3 2 -1 
56 2 1 -1.00000000 129.10000610 519.87841797 411.95576429 -248.93212128 3 2 -1 
57 2 2 1.00000000 128.19999695 519.26232147 410.85637546 -245.15873718 3 2 -1 
58 2 1 -1.00000000 129.10000610 517.11933136 408.49501228 -243.43738937 2 2 -1 
59 2 1 -1.00000000 129.10000610 513.65292358 408.43166065 -245.35322571 2 2 -1 
60 2 1 -1.00000000 129.10000610 513.32344818 410.89687371 -248.33256912 2 2 -1 
61 2 2 1.00000000 128.19999695 513.88937378 414.07769489 -246.06496429 2 2 -1 
62 2 1 -1.00000000 129.10000610 514.44213104 415.86316991 -242.70270920 2 2 -1 
63 2 1 -1.00000000 129.10000610 515.25618744 418.70485139 -240.56505585 2 2 -1 
64 2 1 -1.00000000 129.10000610 517.93936157 418.09231067 -237.66435814 2 2 -1 
65 2 2 1.00000000 128.19999695 516.53209686 418.19326735 -234.10771751 2 2 -1 
66 2 2 1.00000000 128.19999695 514.00753784 418.16769719 -231.69464493 2 2 -1 
67 2 1 -1.00000000 129.10000610 513.47322083 415.60197270 -228.69930840 2 2 -1 
68 2 1 -1.00000000 129.10000610 514.97966003 412.05090356 -228.50487709 2 2 -1 
69 2 2 1.00000000 128.19999695 517.39482880 409.45803976 -226.88644218 2 2 -1 
70 2 1 -1.00000000 129.10000610 517.99311829 406.13530827 -225.07029343 2 2 -1 
71 2 1 -1.00000000 129.10000610 519.82752991 404.23405838 -222.36135769 3 2 -1 
72 2 1 -1.00000000 129.10000610 523.43457794 405.90095329 -222.96390820 3 2 -1 
73 2 2 1.00000000 128.19999695 526.60691833 405.16797733 -221.30964661 3 2 -1 
74 2 1 -1.00000000 129.10000610 526.72493744 402.81465530 -218.24307728 3 2 -1 
75 2 1 -1.00000000 129.10000610 523.40282440 402.30744743 -216.29628468 3 2 -1 
76 2 2 1.00000000 128.19999695 521.21384430 404.37654495 -213.54324484 3 2 -1 
77 2 2 1.00000000 128.19999695 519.23425293 406.80410099 -215.80652905 3 2 -1 
78 2 2 1.00000000 128.19999695 517.25484467 409.63746214 -218.20055485 2 2 -1 
79 2 2 1.00000000 128.19999695 519.45854950 412.75000179 -219.42117977 3 2 -1 
80 2 2 1.00000000 128.19999695 519.01441193 415.48268247 -216.67775726 3 2 -1 
81 2 1 -1.00000000 129.10000610 520.99827576 416.53457487 -213.71175575 3 2 -1 
82 2 1 -1.00000000 129.10000610 523.63121033 418.05567956 -211.36329412 3 2 -1 
83 2 1 -1.00000000 129.10000610 522.46639252 421.85761309 -210.86937356 3 2 -1 
84 2 2 1.00000000 128.19999695 523.35915375 424.75481319 -208.19506639 3 2 -1 
85 2 2 1.00000000 128.19999695 524.08727264 422.36862993 -205.12104726 3 2 -1 
86 2 2 1.00000000 128.19999695 526.59900665 422.75730515 -202.17251968 3 2 -1 
87 2 1 -1.00000000 129.10000610 530.02559662 422.52513075 -202.74872828 3 2 -1 
88 2 2 1.00000000 128.19999695 534.10740662 422.43713284 -202.32927370 3 2 -1 
89 2 1 -1.00000000 129.10000610 535.42350769 419.17131948 -202.59719753 3 2 -1 
90 2 1 -1.00000000 129.10000610 535.33226013 416.52646077 -199.62990665 3 2 -1 
91 2 1 -1.00000000 129.10000610 532.65248871 415.10277128 -197.21957874 3 2 -1 
92 2 2 1.00000000 128.19999695 528.61613464 414.77397352 -198.12720394 3 2 -1 
93 2 1 -1.00000000 129.10000610 525.12095642 415.60077500 -199.45604610 3 2 -1 
94 2 2 1.00000000 128.19999695 521.91574097 414.96386677 -197.49630070 3 2 -1 
95 2 2 1.00000000 128.19999695 518.42536163 414.09054673 -196.30440331 3 2 -1 
96 2 2 1.00000000 128.19999695 519.19660187 411.18456507 -193.88223267 3 2 -1 
97 2 1 -1.00000000 129.10000610 521.24427032 408.65829992 -195.97975826 3 2 -1 
98 2 2 1.00000000 128.19999695 524.62261963 407.07175207 -196.25988102 3 2 -1 
99 2 1 -1.00000000 129.10000610 526.45494843 409.25249910 -193.93417168 3 2 -1 
100 2 2 1.00000000 128.19999695 527.88608551 412.77584958 -192.41161823 3 2 -1 
101 3 2 1.00000000 128.19999695 325.50852966 -70.36926270 -22.03526878 2 0 0 
102 3 1 -1.00000000 129.10000610 323.27849579 -69.10559845 -24.84966660 2 0 0 
103 3 2 1.00000000 128.19999695 323.79001617 -71.37219238 -27.86070061 2 0 0 
104 3 2 1.00000000 128.19999695 323.75990295 -69.40155792 -30.84465599 2 0 0 
105 3 2 1.00000000 128.19999695 323.12933350 -69.99198914 -34.39306641 2 0 0 
106 3 1 -1.00000000 129.10000610 325.42019653 -69.12294006 -37.59312057 2 0 0 
107 3 2 1.00000000 128.19999695 327.83478546 -66.88000488 -39.54479218 2 0 0 
108 3 1 -1.00000000 129.10000610 329.14850616 -64.68675232 -41.78158569 2 0 0 
109 3 1 -1.00000000 129.10000610 331.42187500 -63.49234390 -44.33963776 2 0 0 
110 3 1 -1.00000000 129.10000610 330.94934082 -64.06433868 -47.71250916 2 0 0 
111 3 2 1.00000000 128.19999695 331.51134491 -66.49450684 -50.64818192 2 0 0 
112 3 1 -1.00000000 129.10000610 328.66971588 -68.37255859 -52.40028381 2 0 0 
113 3 1 -1.00000000 129.10000610 326.36962128 -69.90736389 -49.56916046 2 0 0 
114 3 1 -1.00000000 129.10000610 327.51383972 -68.01555634 -46.43997574 2 0 0 
115 3 2 1.00000000 128.19999695 324.13941956 -66.94313812 -44.91888046 2 0 0 
116 3 2 1.00000000 128.19999695 322.79183197 -64.14345551 -47.15947723 2 0 0 
117 3 1 -1.00000000 129.10000610 319.62673187 -62.68995667 -48.67633438 2 0 0 
118 3 1 -1.00000000 129.10000610 316.01937103 -63.25899124 -47.86555862 2 0 0 
119 3 2 1.00000000 128.19999695 313.43540955 -64.37644196 -45.16196442 2 0 0 
120 3 1 -1.00000000 129.10000610 313.92613983 -64.74832153 -41.45471954 2 0 0 
121 3 1 -1.00000000 129.10000610 313.16850281 -68.11823273 -39.83750153 2 0 0 
122 3 1 -1.00000000 129.10000610 313.97359467 -69.22003174 -36.08383179 2 0 0 
123 3 2 1.00000000 128.19999695 314.32192993 -72.13482666 -33.40759659 2 0 0 
124 3 1 -1.00000000 129.10000610 317.20771790 -70.26148987 -31.22403908 2 0 0 
125 3 1 -1.00000000 129.10000610 316.09143066 -67.76598358 -29.21760178 2 0 0 
126 3 2 1.00000000 128.19999695 312.19548035 -67.96703339 -28.58127403 2 0 0 
127 3 2 1.00000000 128.19999695 310.93354034 -64.95850372 -31.05414200 1 0 0 
128 3 2 1.00000000 128.19999695 309.13973999 -61.41675568 -30.29794884 1 0 0 
129 3 2 1.00000000 128.19999695 309.84299469 -57.81394577 -31.87087440 1 0 0 
130 3 2 1.00000000 128.19999695 307.65239716 -54.90888977 -31.17725563 1 0 0 
131 3 1 -1.00000000 129.10000610 308.66490936 -51.26243591 -32.47314453 1 0 0 
132 3 1 -1.00000000 129.10000610 309.07614136 -50.64842224 -36.48003006 1 0 0 
133 3 1 -1.00000000 129.10000610 311.36515808 -53.47872162 -38.09805298 2 0 0 
134 3 2 1.00000000 128.19999695 313.43955231 -53.92251205 -40.93793488 2 0 0 
135 3 2 1.00000000 128.19999695 317.23258209 -55.00915909 -40.70359802 2 0 0 
136 3 2 1.00000000 128.19999695 320.60102844 -56.64219666 -40.73653030 2 0 0 
137 3 1 -1.00000000 129.10000610 323.79091644 -58.71821213 -40.01324081 2 0 0 
138 3 2 1.00000000 128.19999695 327.25022888 -57.45968246 -39.61973572 2 0 0 
139 3 1 -1.00000000 129.10000610 330.55660248 -55.44131088 -40.06867599 2 0 0 
140 3 1 -1.00000000 129.10000610 331.40669250 -51.99926376 -38.67077255 2 0 0 
141 3 1 -1.00000000 129.10000610 329.26782227 -49.11259842 -37.35163879 2 0 0 
142 3 2 1.00000000 128.19999695 328.76585388 -45.62425232 -38.69563293 2 0 0 
143 3 1 -1.00000000 129.10000610 324.80104828 -45.95933914 -38.75372314 2 0 0 
144 3 2 1.00000000 128.19999695 322.16032410 -48.08984756 -36.73959732 2 0 0 
145 3 2 1.00000000 128.19999695 320.19417572 -49.02943039 -33.64385986 2 0 0 
146 3 2 1.00000000 128.19999695 319.80341339 -48.55640411 -30.07805824 2 0 0 
147 3 1 -1.00000000 129.10000610 320.72045898 -45.11088562 -28.98060608 2 0 0 
148 3 2 1.00000000 128.19999695 322.53376007 -41.97150421 -30.17740250 2 0 0 
149 3 1 -1.00000000 129.10000610 321.55369568 -38.63220596 -28.76403427 2 0 0 
150 3 2 1.00000000 128.19999695 318.16028595 -36.67010498 -28.21186829 2 0 0 
151 4 2 1.00000000 128.19999695 -354.22601700 289.19363403 -13.33541489 -2 1 0 
152 4 1 -1.00000000 129.10000610 -351.50522232 287.65057373 -10.52926540 -2 1 0 
153 4 2 1.00000000 128.19999695 -350.55010223 289.71463013 -7.13078499 -2 1 0 
154 4 2 1.00000000 128.19999695 -347.56496429 292.02597809 -5.74430084 -2 1 0 
155 4 2 1.00000000 128.19999695 -345.71507263 295.12012482 -6.01504135 -2 1 0 
156 4 1 -1.00000000 129.10000610 -342.29808807 296.81748962 -6.78283072 -2 1 0 
157 4 2 1.00000000 128.19999695 -339.98294067 298.44628143 -8.81666946 -2 1 0 
158 4 1 -1.00000000 129.10000610 -338.83307648 300.92863464 -11.34366703 -2 1 0 
159 4 1 -1.00000000 129.10000610 -339.00049591 303.69478607 -13.96860313 -2 1 0 
160 4 1 -1.00000000 129.10000610 -340.34144592 305.22826385 -17.36492729 -2 1 0 
161 4 2 1.00000000 128.19999695 -343.00777435 308.19994354 -17.18520164 -2 1 0 
162 4 1 -1.00000000 129.10000610 -345.62422943 310.10761261 -19.01388931 -2 1 0 
163 4 1 -1.00000000 129.10000610 -349.13178253 310.01222992 -20.17226028 -2 1 0 
164 4 1 -1.00000000 129.10000610 -351.60789490 312.77439117 -20.81269455 -2 2 0 
165 4 2 1.00000000 128.19999695 -351.25284195 314.18592072 -24.41991425 -2 2 0 
166 4 2 1.00000000 128.19999695 -354.76084518 315.66032410 -25.04374886 -2 2 0 
167 4 1 -1.00000000 129.10000610 -354.33709335 319.04668427 -23.72379875 -2 2 0 
168 4 1 -1.00000000 129.10000610 -356.83623123 320.54463196 -21.09743500 -2 2 0 
169 4 2 1.00000000 128.19999695 -355.17805099 323.58720398 -19.12596512 -2 2 0 
170 4 1 -1.00000000 129.10000610 -357.97995377 325.91480255 -17.06793213 -2 2 0 
171 4 1 -1.00000000 129.10000610 -361.05817032 327.26375580 -14.56820202 -2 2 0 
172 4 1 -1.00000000 129.10000610 -362.97970963 330.32328796 -15.45972157 -2 2 0 
173 4 2 1.00000000 128.19999695 -361.21057510 332.62702942 -17.64594078 -2 2 0 
174 4 1 -1.00000000 129.10000610 -359.86960602 336.24348450 -18.33270073 -2 2 0 
175 4 1 -1.00000000 129.10000610 -357.70735931 338.63563538 -16.70931244 -2 2 0 
176 4 2 1.00000000 128.19999695 -354.28107071 338.08135986 -17.74841881 -2 2 0 
177 4 2 1.00000000 128.19999695 -352.97877884 336.29109955 -14.74578285 -2 2 0 
178 4 2 1.00000000 128.19999695 -355.61986923 334.50331879 -12.48706245 -2 2 0 
179 4 2 1.00000000 128.19999695 -357.08164215 331.92760468 -10.43167496 -2 2 0 
180 4 2 1.00000000 128.19999695 -355.06624985 329.45503235 -8.24789524 -2 2 0 
181 4 1 -1.00000000 129.10000610 -353.31520081 329.14552307 -5.09379005 -2 2 0 
182 4 1 -1.00000000 129.10000610 -353.27706528 325.93382263 -3.35409427 -2 2 0 
183 4 1 -1.00000000 129.10000610 -353.07343292 323.03405762 -5.88238287 -2 2 0 
184 4 2 1.00000000 128.19999695 -351.68676758 320.56115723 -3.62792444 -2 2 0 
185 4 2 1.00000000 128.19999695 -348.66301727 319.04690552 -1.52528119 -2 2 0 
186 4 2 1.00000000 128.19999695 -346.17695618 316.63043976 -3.63372231 -2 2 0 
187 4 1 -1.00000000 129.10000610 -345.11389923 312.96299744 -5.20291948 -2 2 0 
188 4 2 1.00000000 128.19999695 -346.08779144 309.85206604 -3.13933706 -2 1 0 
189 4 1 -1.00000000 129.10000610 -345.72586823 310.87722015 0.54794091 -2 1 0 
190 4 1 -1.00000000 129.10000610 -347.18833923 308.48371124 3.44330025 -2 1 0 
191 4 1 -1.00000000 129.10000610 -348.61454773 308.14723969 6.86851311 -2 1 0 
192 4 2 1.00000000 128.19999695 -347.52381134 305.60614014 9.38455009 -2 1 0 
193 4 1 -1.00000000 129.10000610 -344.24027252 304.16660309 8.41410255 -2 1 0 
194 4 2 1.00000000 128.19999695 -342.39691925 303.13777161 5.27216673 -2 1 0 
195 4 2 1.00000000 128.19999695 -338.62052155 304.12680817 5.61875725 -2 1 0 
196 4 2 1.00000000 128.19999695 -336.83712769 302.96918488 9.01171207 -2 1 0 
197 4 1 -1.00000000 129.10000610 -335.33459473 301.30216217 12.02866459 -2 1 0 
198 4 2 1.00000000 128.19999695 -335.30319214 297.54257965 12.07451534 -2 1 0 
199 4 1 -1.00000000 129.10000610 -331.61357117 296.13262177 12.45026779 -2 1 0 
200 4 2 1.00000000 128.19999695 -329.79210663 293.06227112 14.00234985 -2 1 0 
201 5 2 1.00000000 128.19999695 -340.24034119 -195.86343384 -207.20682624 -2 -1 -1 
202 5 1 -1.00000000 129.10000610 -343.96034241 -195.44094467 -207.30484511 -2 -1 -1 
203 5 2 1.00000000 128.19999695 -345.59116364 -192.37305069 -208.50526738 -2 -1 -1 
204 5 2 1.00000000 128.19999695 -347.68933105 -190.31789589 -205.70001519 -2 -1 -1 
205 5 2 1.00000000 128.19999695 -350.68328857 -191.58685112 -203.91568089 -2 -1 -1 
206 5 1 -1.00000000 129.10000610 -353.25762558 -194.58663654 -203.27824116 -2 -1 -1 
207 5 2 1.00000000 128.19999695 -353.41021729 -196.54736900 -200.28690529 -2 -1 -1 
208 5 1 -1.00000000 129.10000610 -352.55652618 -199.97057772 -198.77927876 -2 -1 -1 
209 5 1 -1.00000000 129.10000610 -355.75070572 -202.03735876 -199.43677616 -2 -1 -1 
210 5 1 -1.00000000 129.10000610 -356.04686737 -202.58077478 -203.22233343 -2 -1 -1 
211 5 2 1.00000000 128.19999695 -359.02178574 -203.54554772 -205.37451458 -2 -1 -1 
212 5 1 -1.00000000 129.10000610 -359.14042282 -202.23073387 -209.19954026 -2 -1 -1 
213 5 1 -1.00000000 129.10000610 -360.04134750 -200.25652695 -212.34812307 -2 -1 -1 
214 5 1 -1.00000000 129.10000610 -359.05386353 -196.76797867 -211.92235279 -2 -1 -1 
215 5 2 1.00000000 128.19999695 -356.70248413 -194.10098076 -210.34041095 -2 -1 -1 
216 5 2 1.00000000 128.19999695 -358.90636063 -191.80459309 -208.22456807 -2 -1 -1 
217 5 1 -1.00000000 129.10000610 -356.28353882 -189.30548096 -206.95525107 -2 -1 -1 
218 5 1 -1.00000000 129.10000610 -355.62248611 -186.19358826 -205.06220078 -2 -1 -1 
219 5 2 1.00000000 128.19999695 -356.69203949 -182.42118073 -206.19884324 -2 -1 -1 
220 5 1 -1.00000000 129.10000610 -359.18129349 -180.33151245 -208.46095800 -2 -1 -1 
221 5 1 -1.00000000 129.10000610 -355.83368301 -179.99934196 -210.90002537 -2 -1 -1 
222 5 1 -1.00000000 129.10000610 -352.70066071 -181.55955124 -212.91195536 -2 -1 -1 
223 5 2 1.00000000 128.19999695 -353.21740341 -185.28490829 -213.38532972 -2 -1 -1 
224 5 1 -1.00000000 129.10000610 -350.40113068 -187.66747475 -214.25361776 -2 -1 -1 
225 5 1 -1.00000000 129.10000610 -348.40179443 -190.76409340 -214.35759687 -2 -1 -1 
226 5 2 1.00000000 128.19999695 -350.15375519 -194.32563972 -213.89603758 -2 -1 -1 
227 5 2 1.00000000 128.19999695 -351.62839508 -197.47514725 -212.69368744 -2 -1 -1 
228 5 2 1.00000000 128.19999695 -351.19301987 -200.75749063 -214.19781971 -2 -1 -1 
229 5 2 1.00000000 128.19999695 -350.42879486 -200.49036169 -217.83804131 -2 -1 -1 
230 5 2 1.00000000 128.19999695 -349.11685944 -203.05143118 -220.61433983 -2 -1 -1 
231 5 1 -1.00000000 129.10000610 -351.73820496 -205.97601056 -220.57643223 -2 -1 -1 
232 5 1 -1.00000000 129.10000610 -353.21298599 -209.20322561 -221.87727356 -2 -1 -1 
233 5 1 -1.00000000 129.10000610 -354.07624054 -208.96488464 -225.80396843 -2 -1 -1 
234 5 2 1.00000000 128.19999695 -351.67580032 -210.83228421 -227.83928871 -2 -1 -1 
235 5 2 1.00000000 128.19999695 -349.78051758 -213.78646278 -227.91959763 -2 -1 -1 
236 5 2 1.00000000 128.19999695 -349.09024811 -215.88636112 -224.66379547 -2 -1 -1 
237 5 1 -1.00000000 129.10000610 -345.24037933 -215.24163151 -223.86116028 -2 -1 -1 
238 5 2 1.00000000 128.19999695 -342.60729218 -216.78308010 -226.28794289 -2 -1 -1 
239 5 1 -1.00000000 129.10000610 -342.46899414 -218.64069271 -229.62265205 -2 -1 -1 
240 5 1 -1.00000000 129.10000610 -341.72174835 -218.36747169 -233.04935455 -2 -1 -1 
241 5 1 -1.00000000 129.10000610 -343.80448914 -219.42464924 -235.93084717 -2 -1 -1 
242 5 2 1.00000000 128.19999695 -343.96051025 -219.95760059 -239.72765350 -2 -1 -1 
243 5 1 -1.00000000 129.10000610 -342.45559692 -220.92357826 -243.23739624 -2 -1 -1 
244 5 2 1.00000000 128.19999695 -339.76631165 -223.34892941 -242.54520416 -2 -1 -1 
245 5 2 1.00000000 128.19999695 -337.15334320 -224.82745361 -244.65806580 -2 -1 -1 
246 5 2 1.00000000 128.19999695 -339.09075928 -226.94176483 -247.37751007 -2 -1 -1 
247 5 1 -1.00000000 129.10000610 -339.40475464 -227.69469261 -251.33626556 -2 -1 -1 
248 5 2 1.00000000 128.19999695 -340.65649414 -225.45442009 -254.07106400 -2 -1 -1 
249 5 1 -1.00000000 129.10000610 -339.87564850 -222.92614841 -257.15668106 -2 -1 -1 
250 5 2 1.00000000 128.19999695 -338.53055573 -222.41088963 -260.49485779 -2 -1 -1 
251 6 2 1.00000000 128.19999695 433.98695946 -433.30807877 -34.78694153 2 -2 0 
252 6 1 -1.00000000 129.10000610 436.50483704 -435.51766205 -33.27044296 2 -2 0 
253 6 2 1.00000000 128.19999695 436.81016159 -438.95287323 -31.47034264 2 -2 0 
254 6 2 1.00000000 128.19999695 433.25152016 -440.13735008 -31.28391647 2 -2 0 
255 6 2 1.00000000 128.19999695 430.41993046 -438.40341759 -28.87046623 2 -2 0 
256 6 1 -1.00000000 129.10000610 428.07775879 -439.30106354 -25.87371445 2 -2 0 
257 6 2 1.00000000 128.19999695 427.81094933 -442.98013306 -25.39075661 2 -2 0 
258 6 1 -1.00000000 129.10000610 425.64403915 -445.73582077 -26.25896835 2 -2 0 
259 6 1 -1.00000000 129.10000610 421.62915897 -446.91460037 -25.26230621 2 -2 0 
260 6 1 -1.00000000 129.10000610 419.87097263 -448.19906235 -21.91905785 2 -2 0 
261 6 2 1.00000000 128.19999695 418.46731520 -450.98643494 -19.72373390 2 -2 0 
262 6 1 -1.00000000 129.10000610 418.91068220 -454.85528183 -19.81907463 2 -2 0 
263 6 1 -1.00000000 129.10000610 416.39273262 -456.60254669 -17.84434700 2 -2 0 
264 6 1 -1.00000000 129.10000610 413.73107481 -453.82032776 -17.23238182 2 -2 0 
265 6 2 1.00000000 128.19999695 409.94384336 -453.53562164 -16.10441971 2 -2 0 
266 6 2 1.00000000 128.19999695 409.08339787 -457.36079407 -15.12348461 2 -2 0 
267 6 1 -1.00000000 129.10000610 407.35366344 -458.23742294 -18.48843765 2 -2 0 
268 6 1 -1.00000000 129.10000610 409.79431772 -457.20211411 -21.45214844 2 -2 0 
269 6 2 1.00000000 128.19999695 408.54553270 -454.34630585 -23.52814102 2 -2 0 
270 6 1 -1.00000000 129.10000610 409.18372202 -452.05162048 -26.76464081 2 -2 0 
271 6 1 -1.00000000 129.10000610 407.26377726 -451.86982727 -29.89506531 2 -2 0 
272 6 1 -1.00000000 129.10000610 404.29513168 -454.04560471 -29.86162186 2 -2 0 
273 6 2 1.00000000 128.19999695 401.48369503 -456.45373917 -30.18555641 2 -2 0 
274 6 1 -1.00000000 129.10000610 401.64076614 -458.87557220 -32.92934036 2 -2 0 
275 6 1 -1.00000000 129.10000610 397.76816559 -460.26931763 -33.37046051 2 -2 0 
276 6 2 1.00000000 128.19999695 394.45862579 -459.48416519 -34.78108978 2 -2 0 
277 6 2 1.00000000 128.19999695 391.94508743 -456.60174942 -34.84069061 2 -2 0 
278 6 2 1.00000000 128.19999695 393.72238731 -453.12127686 -34.12763214 2 -2 0 
279 6 2 1.00000000 128.19999695 396.85017204 -452.57308960 -32.18627167 2 -2 0 
280 6 2 1.00000000 128.19999695 398.22623062 -449.24099350 -31.25943756 2 -2 0 
281 6 1 -1.00000000 129.10000610 397.60161591 -446.23272896 -33.70798111 2 -2 0 
282 6 1 -1.00000000 129.10000610 397.78916168 -443.02681732 -31.60163689 2 -2 0 
283 6 1 -1.00000000 129.10000610 396.38938332 -440.54923630 -28.55642319 2 -2 0 
284 6 2 1.00000000 128.19999695 393.31257439 -438.02962303 -28.96230125 2 -2 0 
285 6 2 1.00000000 128.19999695 389.57338142 -436.47517204 -29.77443886 2 -2 0 
286 6 2 1.00000000 128.19999695 390.69162560 -432.73295021 -30.72157669 2 -2 0 
287 6 1 -1.00000000 129.10000610 394.16644669 -431.79025078 -30.05621529 2 -2 0 
288 6 2 1.00000000 128.19999695 397.06044579 -429.59060097 -30.63177490 2 -2 0 
289 6 1 -1.00000000 129.10000610 396.80955315 -425.97746468 -29.52231789 2 -2 0 
290 6 1 -1.00000000 129.10000610 398.30836105 -422.40435410 -28.90427780 2 -2 0 
291 6 1 -1.00000000 129.10000610 398.10504532 -421.68375683 -32.78911209 2 -2 0 
292 6 2 1.00000000 128.19999695 395.06645012 -421.21215534 -34.80323029 2 -2 0 
293 6 1 -1.00000000 129.10000610 393.43037224 -422.81182098 -38.01017380 2 -2 0 
294 6 2 1.00000000 128.19999695 394.11262131 -423.10862350 -41.74761200 2 -2 0 
295 6 2 1.00000000 128.19999695 391.75126839 -421.84030437 -44.59431076 2 -2 0 
296 6 2 1.00000000 128.19999695 388.52753830 -421.62349749 -46.56366730 2 -2 0 
297 6 1 -1.00000000 129.10000610 384.93292809 -423.09494781 -46.76727295 2 -2 0 
298 6 2 1.00000000 128.19999695 382.07056808 -420.53647470 -46.53472900 2 -2 0 
299 6 1 -1.00000000 129.10000610 379.45880890 -417.54573464 -47.39305878 2 -2 0 
300 6 2 1.00000000 128.19999695 379.02051926 -416.61858833 -51.11244583 2 -2 0 
301 7 2 1.00000000 128.19999695 -126.83673096 -15.20839787 -941.35171509 -1 0 -5 
302 7 1 -1.00000000 129.10000610 -128.19155121 -13.04551601 -937.96907806 -1 0 -5 
303 7 2 1.00000000 128.19999695 -131.97541046 -13.38314152 -937.73032379 -1 0 -5 
304 7 2 1.00000000 128.19999695 -133.24739838 -12.59702778 -941.43322754 -1 0 -5 
305 7 2 1.00000000 128.19999695 -136.54539490 -13.83193874 -942.81943512 -1 0 -5 
306 7 1 -1.00000000 129.10000610 -137.74224091 -15.74076748 -946.11815643 -1 0 -5 
307 7 2 1.00000000 128.19999695 -141.27664185 -15.76460457 -948.28750610 -1 0 -5 
308 7 1 -1.00000000 129.10000610 -144.25044250 -17.40571404 -946.66489410 -1 0 -5 
309 7 1 -1.00000000 129.10000610 -144.93031311 -20.27455902 -944.34121704 -1 0 -5 
310 7 1 -1.00000000 129.10000610 -143.57810593 -23.01676941 -942.05424500 -1 0 -5 
311 7 2 1.00000000 128.19999695 -143.98222351 -22.92889595 -938.10791016 -1 0 -5 
312 7 1 -1.00000000 129.10000610 -142.15800476 -25.48007011 -936.58652496 -1 0 -5 
313 7 1 -1.00000000 129.10000610 -141.33917236 -27.85258675 -933.52684784 -1 0 -5 
314 7 1 -1.00000000 129.10000610 -138.56341553 -30.25971031 -932.38513184 -1 0 -4 
315 7 2 1.00000000 128.19999695 -139.71998596 -34.10795593 -932.86467743 -1 0 -4 
316 7 2 1.00000000 128.19999695 -140.64382172 -36.55065155 -935.22527313 -1 0 -5 
317 7 1 -1.00000000 129.10000610 -144.06267929 -35.79158783 -936.15273285 -1 0 -5 
318 7 1 -1.00000000 129.10000610 -145.82070923 -38.94048691 -937.69768524 -1 0 -5 
319 7 2 1.00000000 128.19999695 -144.49977493 -39.33076477 -941.40022278 -1 0 -5 
320 7 1 -1.00000000 129.10000610 -142.61361694 -37.91594696 -944.42153168 -1 0 -5 
321 7 1 -1.00000000 129.10000610 -144.65497971 -35.15097809 -946.12303925 -1 0 -5 
322 7 1 -1.00000000 129.10000610 -148.02960205 -35.45567703 -948.19180298 -1 0 -5 
323 7 2 1.00000000 128.19999695 -150.14266586 -38.34728622 -947.43069458 -1 0 -5 
324 7 1 -1.00000000 129.10000610 -152.46904373 -38.33451462 -944.53966522 -1 0 -5 
325 7 1 -1.00000000 129.10000610 -155.11897278 -35.54602432 -944.30191803 -1 0 -5 
326 7 2 1.00000000 128.19999695 -154.42972183 -31.94659233 -945.14775848 -1 0 -5 
327 7 2 1.00000000 128.19999695 -150.78220749 -31.06145859 -944.94817352 -1 0 -5 
328 7 2 1.00000000 128.19999695 -147.75467682 -30.41424751 -942.64764404 -1 0 -5 
329 7 2 1.00000000 128.19999695 -143.64616776 -29.60871696 -942.38394165 -1 0 -5 
330 7 2 1.00000000 128.19999695 -140.01436615 -29.32469559 -940.62411499 -1 0 -5 
331 7 1 -1.00000000 129.10000610 -137.34405518 -29.79876328 -942.93933868 -1 0 -5 
332 7 1 -1.00000000 129.10000610 -134.76641083 -28.80547142 -945.53060150 -1 0 -5 
333 7 1 -1.00000000 129.10000610 -136.47336578 -27.26136971 -948.74591064 -1 0 -5 
334 7 2 1.00000000 128.19999695 -139.60110474 -25.13092804 -949.11521149 -1 0 -5 
335 7 2 1.00000000 128.19999695 -141.97216034 -26.72339821 -951.71828461 -1 0 -5 
336 7 2 1.00000000 128.19999695 -142.08794403 -24.38980293 -954.48622131 -1 0 -5 
337 7 1 -1.00000000 129.10000610 -141.06782532 -21.05628014 -953.18052673 -1 0 -5 
338 7 2 1.00000000 128.19999695 -142.91109467 -18.10849762 -954.80737305 -1 0 -5 
339 7 1 -1.00000000 129.10000610 -146.71821594 -17.90864944 -953.80876923 -1 0 -5 
340 7 1 -1.00000000 129.10000610 -148.94140625 -14.98721409 -953.21865845 -1 0 -5 
341 7 1 -1.00000000 129.10000610 -149.16043854 -13.81796932 -949.65483093 -1 0 -5 
342 7 2 1.00000000 128.19999695 -150.41118240 -11.21182919 -947.04756165 -1 0 -5 
343 7 1 -1.00000000 129.10000610 -150.12157059 -7.41290331 -946.38100433 -1 0 -5 
344 7 2 1.00000000 128.19999695 -147.42926025 -5.37056780 -948.19644928 -1 0 -5 
345 7 2 1.00000000 128.19999695 -144.28162003 -3.99163532 -948.86902618 -1 0 -5 
346 7 2 1.00000000 128.19999695 -140.63569641 -5.49377632 -949.16044617 -1 0 -5 
347 7 1 -1.00000000 129.10000610 -138.27532959 -8.36905479 -948.83066559 -1 0 -5 
348 7 2 1.00000000 128.19999695 -134.81580353 -9.80537605 -949.32915497 -1 0 -5 
349 7 1 -1.00000000 129.10000610 -132.06052399 -10.67223167 -951.48887634 -1 0 -5 
350 7 2 1.00000000 128.19999695 -133.38619995 -13.15885830 -954.29524231 -1 0 -5 
351 8 2 1.00000000 128.19999695 39.59591675 -128.98584747 619.39315224 0 -1 3 
352 8 1 -1.00000000 129.10000610 39.78604126 -125.15595245 618.54296327 0 -1 3 
353 8 2 1.00000000 128.19999695 39.45316696 -121.72339630 620.30901468 0 -1 3 
354 8 2 1.00000000 128.19999695 40.08035660 -120.09242249 623.67952096 0 -1 3 
355 8 2 1.00000000 128.19999695 40.21555710 -118.96786499 627.45546675 0 -1 3 
356 8 1 -1.00000000 129.10000610 37.28557205 -119.82344055 629.25049734 0 -1 3 
357 8 2 1.00000000 128.19999695 35.79580688 -121.47006989 632.49103451 0 -1 3 
358 8 1 -1.00000000 129.10000610 33.08526611 -118.85809326 633.32358074 0 -1 3 
359 8 1 -1.00000000 129.10000610 34.22704315 -115.67846680 635.48860931 0 -1 3 
360 8 1 -1.00000000 129.10000610 36.07623672 -116.94683838 638.60263443 0 -1 3 
361 8 2 1.00000000 128.19999695 36.04908752 -120.21815491 640.48457146 0 -1 3 
362 8 1 -1.00000000 129.10000610 32.20285034 -121.36206818 640.04394913 0 -1 3 
363 8 1 -1.00000000 129.10000610 29.74710464 -120.89219666 642.96015549 0 -1 3 
364 8 1 -1.00000000 129.10000610 27.21646690 -117.76904297 643.44539261 0 -1 3 
365 8 2 1.00000000 128.19999695 28.82634163 -115.27482605 641.06164551 0 -1 3 
366 8 2 1.00000000 128.19999695 29.11018372 -113.25141907 637.63758945 0 -1 3 
367 8 1 -1.00000000 129.10000610 29.79334641 -110.69371033 635.17603588 0 -1 3 
368 8 1 -1.00000000 129.10000610 32.23826599 -107.65184784 634.26942825 0 -1 3 
369 8 2 1.00000000 128.19999695 35.00046539 -107.03182983 631.90958786 0 -1 3 
370 8 1 -1.00000000 129.10000610 34.66032410 -104.05248260 629.31553888 0 -1 3 