ITEM: TIMESTEP
44250000 
ITEM: NUMBER OF ATOMS 
25000 
ITEM: BOX BOUNDS pp pp pp 
-103.678017 103.678017 
-103.678017 103.678017 
-103.678017 103.678017 
ITEM: ATOMS id mol type q mass xu yu zu ix iy iz 
1 1 2 1.00000000 128.19999695 552.97077179 -193.08761501 -252.58464050 3 -1 -1 
2 1 1 -1.00000000 129.10000610 549.29447174 -191.37720108 -252.29139709 3 -1 -1 
3 1 2 1.00000000 128.19999695 549.21134949 -188.57584763 -254.22515488 3 -1 -1 
4 1 2 1.00000000 128.19999695 549.68872070 -185.82558441 -256.94757843 3 -1 -1 
5 1 2 1.00000000 128.19999695 547.44088745 -186.24235344 -259.74153900 3 -1 -1 
6 1 1 -1.00000000 129.10000610 546.51747894 -186.84411049 -263.51910400 3 -1 -1 
7 1 2 1.00000000 128.19999695 547.71403503 -190.22552681 -264.88286209 3 -1 -1 
8 1 1 -1.00000000 129.10000610 550.39362335 -192.07584667 -262.72795486 3 -1 -1 
9 1 1 -1.00000000 129.10000610 553.21755981 -190.44863319 -260.41054916 3 -1 -1 
10 1 1 -1.00000000 129.10000610 555.93043518 -192.68110371 -260.66218185 3 -1 -1 
11 1 2 1.00000000 128.19999695 558.03547668 -195.58907318 -262.01260757 3 -1 -1 
12 1 1 -1.00000000 129.10000610 560.06137085 -198.67466068 -260.89147949 3 -1 -1 
13 1 1 -1.00000000 129.10000610 559.61027527 -202.46705341 -260.43945312 3 -1 -1 
14 1 1 -1.00000000 129.10000610 557.53107452 -202.97946692 -263.50671387 3 -1 -1 
15 1 2 1.00000000 128.19999695 556.48448944 -205.44793415 -266.30442047 3 -1 -1 
16 1 2 1.00000000 128.19999695 557.49140930 -202.93691349 -269.14799500 3 -1 -1 
17 1 1 -1.00000000 129.10000610 556.55922699 -199.90878439 -270.65095901 3 -1 -1 
18 1 1 -1.00000000 129.10000610 557.27272034 -199.31517410 -274.45558167 3 -1 -1 
19 1 2 1.00000000 128.19999695 553.88813782 -199.97704887 -276.18823242 3 -1 -1 
20 1 1 -1.00000000 129.10000610 553.35291290 -199.57209158 -280.19908142 3 -1 -1 
21 1 1 -1.00000000 129.10000610 550.29753113 -201.02544069 -282.27590942 3 -1 -1 
22 1 1 -1.00000000 129.10000610 552.04946899 -204.74800992 -282.75798035 3 -1 -1 
23 1 2 1.00000000 128.19999695 551.86531067 -208.33687204 -283.74838257 3 -1 -1 
24 1 1 -1.00000000 129.10000610 550.13217926 -211.79223347 -283.34323120 3 -1 -1 
25 1 1 -1.00000000 129.10000610 548.68721008 -213.70729017 -286.39751434 3 -1 -1 
26 1 2 1.00000000 128.19999695 547.85575104 -217.48462677 -285.99700165 3 -1 -1 
27 1 2 1.00000000 128.19999695 545.49772644 -220.21585655 -285.85874176 3 -1 -1 
28 1 2 1.00000000 128.19999695 542.71707916 -223.01531124 -285.69487762 3 -1 -1 
29 1 2 1.00000000 128.19999695 544.63627625 -226.30699158 -284.27246094 3 -1 -1 
30 1 2 1.00000000 128.19999695 542.60507965 -229.66560364 -283.76586914 3 -1 -1 
31 1 1 -1.00000000 129.10000610 539.08650970 -228.28674889 -285.65287781 3 -1 -1 
32 1 1 -1.00000000 129.10000610 535.79418945 -229.27559471 -285.67958832 3 -1 -1 
33 1 1 -1.00000000 129.10000610 532.45358276 -230.67673874 -284.95085907 3 -1 -1 
34 1 2 1.00000000 128.19999695 530.04930115 -233.15279961 -286.17121124 3 -1 -1 
35 1 2 1.00000000 128.19999695 531.76290131 -236.33378601 -284.59805298 3 -1 -1 
36 1 2 1.00000000 128.19999695 533.82260895 -238.20046806 -287.33120728 3 -1 -1 
37 1 1 -1.00000000 129.10000610 531.56150055 -239.75021744 -289.47261047 3 -1 -1 
38 1 2 1.00000000 128.19999695 530.39965820 -238.10520363 -292.64884186 3 -1 -1 
39 1 1 -1.00000000 129.10000610 529.73326111 -235.51403809 -295.48881531 3 -1 -1 
40 1 1 -1.00000000 129.10000610 530.90678406 -232.09776688 -296.09162903 3 -1 -1 
41 1 1 -1.00000000 129.10000610 531.03929138 -228.67740059 -298.02491760 3 -1 -1 
42 1 2 1.00000000 128.19999695 528.31665802 -229.77218056 -300.50444031 3 -1 -1 
43 1 1 -1.00000000 129.10000610 525.64892578 -232.68744659 -301.74166870 3 -1 -1 
44 1 2 1.00000000 128.19999695 523.24775696 -235.30580711 -301.46103668 3 -1 -1 
45 1 2 1.00000000 128.19999695 519.80130005 -233.97895622 -300.00625610 3 -1 -1 
46 1 2 1.00000000 128.19999695 515.80006409 -234.31067848 -299.62412262 2 -1 -1 
47 1 1 -1.00000000 129.10000610 513.59352112 -232.05214310 -298.03537750 2 -1 -1 
48 1 2 1.00000000 128.19999695 512.93489838 -230.38471603 -294.37033081 2 -1 -1 
49 1 1 -1.00000000 129.10000610 512.49704742 -227.45076942 -292.15322876 2 -1 -1 
50 1 2 1.00000000 128.19999695 510.94904327 -223.92372513 -291.73960114 2 -1 -1 
51 2 2 1.00000000 128.19999695 618.69128203 309.29557800 -304.01842499 3 1 -1 
52 2 1 -1.00000000 129.10000610 617.91425610 312.03604126 -301.81442261 3 2 -1 
53 2 2 1.00000000 128.19999695 614.51870394 313.53956604 -301.23466492 3 2 -1 
54 2 2 1.00000000 128.19999695 611.81361103 314.42150879 -298.98055267 3 2 -1 
55 2 2 1.00000000 128.19999695 608.48133850 314.44252014 -297.67929840 3 2 -1 
56 2 1 -1.00000000 129.10000610 605.35312080 314.02200317 -300.22156525 3 2 -1 
57 2 2 1.00000000 128.19999695 604.74493980 314.52005768 -303.90693665 3 2 -1 
58 2 1 -1.00000000 129.10000610 601.88181877 316.27700806 -305.96096039 3 2 -1 
59 2 1 -1.00000000 129.10000610 600.18054581 314.85963440 -309.05879211 3 2 -1 
60 2 1 -1.00000000 129.10000610 600.09716415 311.55776215 -310.80899048 3 2 -1 
61 2 2 1.00000000 128.19999695 602.62030029 309.45059204 -312.52288818 3 1 -2 
62 2 1 -1.00000000 129.10000610 605.29768372 307.24447632 -313.61923218 3 1 -2 
63 2 1 -1.00000000 129.10000610 605.66494179 308.22408295 -317.13132477 3 1 -2 
64 2 1 -1.00000000 129.10000610 603.61443520 310.93489075 -318.61680603 3 1 -2 
65 2 2 1.00000000 128.19999695 603.01856232 314.37106323 -317.30415344 3 2 -2 
66 2 2 1.00000000 128.19999695 602.41880608 316.98714447 -319.61951447 3 2 -2 
67 2 1 -1.00000000 129.10000610 603.22429657 320.68016815 -318.40076447 3 2 -2 
68 2 1 -1.00000000 129.10000610 603.98632240 320.61601257 -314.63244629 3 2 -2 
69 2 2 1.00000000 128.19999695 600.90720749 322.31474304 -313.37739563 3 2 -2 
70 2 1 -1.00000000 129.10000610 598.28795433 324.95382690 -313.61757660 3 2 -2 
71 2 1 -1.00000000 129.10000610 595.97920036 322.57777405 -315.69462585 3 2 -2 
72 2 1 -1.00000000 129.10000610 593.19480133 322.88940430 -318.13697052 3 2 -2 
73 2 2 1.00000000 128.19999695 589.70304108 322.94420624 -317.39833069 3 2 -2 
74 2 1 -1.00000000 129.10000610 587.24459839 324.85182953 -315.64820099 3 2 -2 
75 2 1 -1.00000000 129.10000610 585.22680283 328.14266968 -314.46099854 3 2 -2 
76 2 2 1.00000000 128.19999695 582.16704178 328.02130890 -312.08727264 3 2 -2 
77 2 2 1.00000000 128.19999695 579.14653397 325.70659637 -311.83618927 3 2 -2 
78 2 2 1.00000000 128.19999695 576.35621643 323.27013397 -310.80067444 3 2 -1 
79 2 2 1.00000000 128.19999695 574.76665115 320.35616302 -309.30538940 3 2 -1 
80 2 2 1.00000000 128.19999695 574.97871399 316.39237213 -310.03554535 3 2 -1 
81 2 1 -1.00000000 129.10000610 575.32293320 312.48117065 -310.37224579 3 2 -1 
82 2 1 -1.00000000 129.10000610 573.79000473 309.20417023 -308.85036469 3 1 -1 
83 2 1 -1.00000000 129.10000610 576.97101212 307.18627930 -309.20873260 3 1 -1 
84 2 2 1.00000000 128.19999695 577.02421188 302.95169830 -309.90205383 3 1 -1 
85 2 2 1.00000000 128.19999695 577.31215668 299.09121704 -310.64283752 3 1 -1 
86 2 2 1.00000000 128.19999695 579.60546875 296.63840485 -312.86466980 3 1 -2 
87 2 1 -1.00000000 129.10000610 583.25121307 296.74549866 -311.66123199 3 1 -2 
88 2 2 1.00000000 128.19999695 586.73299026 298.74804688 -312.21763611 3 1 -2 
89 2 1 -1.00000000 129.10000610 590.48297691 298.27079010 -313.33261108 3 1 -2 
90 2 1 -1.00000000 129.10000610 592.32208252 295.36978912 -314.36368561 3 1 -2 
91 2 1 -1.00000000 129.10000610 594.71462250 292.60945892 -314.54840851 3 1 -2 
92 2 2 1.00000000 128.19999695 596.98248482 291.07130432 -311.79127502 3 1 -2 
93 2 1 -1.00000000 129.10000610 598.47500801 288.14156342 -310.35387421 3 1 -1 
94 2 2 1.00000000 128.19999695 598.70858955 286.83008575 -306.95906067 3 1 -1 
95 2 2 1.00000000 128.19999695 598.05583954 283.42265320 -305.97117615 3 1 -1 
96 2 2 1.00000000 128.19999695 597.95827484 279.88529968 -304.30499268 3 1 -1 
97 2 1 -1.00000000 129.10000610 594.95055580 280.45649719 -301.79176331 3 1 -1 
98 2 2 1.00000000 128.19999695 595.06439400 282.36790466 -298.84547424 3 1 -1 
99 2 1 -1.00000000 129.10000610 593.01689529 283.29583740 -295.67079926 3 1 -1 
100 2 2 1.00000000 128.19999695 590.54051208 283.73600769 -293.08721161 3 1 -1 
101 3 2 1.00000000 128.19999695 317.36294556 -141.39136505 71.43920898 2 -1 0 
102 3 1 -1.00000000 129.10000610 321.18029785 -142.35305786 71.20051575 2 -1 0 
103 3 2 1.00000000 128.19999695 322.35270691 -145.60149765 70.21360016 2 -1 0 
104 3 2 1.00000000 128.19999695 325.33449554 -147.15098953 67.88447571 2 -1 0 
105 3 2 1.00000000 128.19999695 323.88613892 -148.80711746 64.53665924 2 -1 0 
106 3 1 -1.00000000 129.10000610 320.07935333 -148.93899155 63.16631317 2 -1 0 
107 3 2 1.00000000 128.19999695 316.80281830 -147.71864319 63.47147369 2 -1 0 
108 3 1 -1.00000000 129.10000610 316.78023529 -143.83401108 64.51443481 2 -1 0 
109 3 1 -1.00000000 129.10000610 313.92963409 -142.39067078 66.82907104 2 -1 0 
110 3 1 -1.00000000 129.10000610 312.81003571 -139.35450745 64.58930969 2 -1 0 
111 3 2 1.00000000 128.19999695 310.00547028 -136.44744110 64.50005341 1 -1 0 
112 3 1 -1.00000000 129.10000610 309.78059387 -134.70616913 67.75048828 1 -1 0 
113 3 1 -1.00000000 129.10000610 310.99120331 -131.47026062 69.07288361 1 -1 0 
114 3 1 -1.00000000 129.10000610 312.86781311 -129.36039734 71.28475952 2 -1 0 
115 3 2 1.00000000 128.19999695 314.77057648 -131.72422791 73.94768524 2 -1 0 
116 3 2 1.00000000 128.19999695 317.43603516 -134.52370453 73.36830902 2 -1 0 
117 3 1 -1.00000000 129.10000610 320.45635223 -133.80538940 75.59056854 2 -1 0 
118 3 1 -1.00000000 129.10000610 321.18472290 -130.88877106 78.53096008 2 -1 0 
119 3 2 1.00000000 128.19999695 322.61703491 -127.27639771 79.24103546 2 -1 0 
120 3 1 -1.00000000 129.10000610 325.32890320 -125.38619232 77.32169342 2 -1 0 
121 3 1 -1.00000000 129.10000610 326.60907745 -124.33615112 74.04595947 2 -1 0 
122 3 1 -1.00000000 129.10000610 324.21432495 -125.28427124 71.08386993 2 -1 0 
123 3 2 1.00000000 128.19999695 324.03241730 -129.05697632 71.38755798 2 -1 0 
124 3 1 -1.00000000 129.10000610 324.58850098 -130.76876068 68.03825378 2 -1 0 
125 3 1 -1.00000000 129.10000610 326.84144592 -132.12552643 65.32093048 2 -1 0 
126 3 2 1.00000000 128.19999695 327.79230499 -129.21479034 62.93964005 2 -1 0 
127 3 2 1.00000000 128.19999695 324.36207581 -127.45647430 62.14648819 2 -1 0 
128 3 2 1.00000000 128.19999695 320.90456390 -128.34855652 61.08800888 2 -1 0 
129 3 2 1.00000000 128.19999695 318.47692108 -125.86499023 63.28029251 2 -1 0 
130 3 2 1.00000000 128.19999695 317.18077850 -127.72483826 66.06289673 2 -1 0 
131 3 1 -1.00000000 129.10000610 318.06356049 -126.35540771 69.35141754 2 -1 0 
132 3 1 -1.00000000 129.10000610 315.58966064 -123.75829315 70.96374512 2 -1 0 
133 3 1 -1.00000000 129.10000610 316.79068756 -122.90972900 74.41980743 2 -1 0 
134 3 2 1.00000000 128.19999695 318.72624207 -120.69836426 76.99848938 2 -1 0 
135 3 2 1.00000000 128.19999695 321.51541138 -118.71968842 78.21040344 2 -1 0 
136 3 2 1.00000000 128.19999695 323.38932800 -118.71971893 81.52294922 2 -1 0 
137 3 1 -1.00000000 129.10000610 325.48416901 -119.34130859 84.38985443 2 -1 0 
138 3 2 1.00000000 128.19999695 328.63974762 -118.43212891 86.13993073 2 -1 0 
139 3 1 -1.00000000 129.10000610 330.00687408 -118.65972137 89.73136139 2 -1 0 
140 3 1 -1.00000000 129.10000610 328.61943817 -120.45118713 92.54553986 2 -1 0 
141 3 1 -1.00000000 129.10000610 329.71596527 -124.38680267 93.04257965 2 -1 0 
142 3 2 1.00000000 128.19999695 333.37877655 -125.36557770 92.92835236 2 -1 0 
143 3 1 -1.00000000 129.10000610 335.05539703 -122.17060852 91.57772827 2 -1 0 
144 3 2 1.00000000 128.19999695 336.39056396 -119.30383301 89.04652405 2 -1 0 
145 3 2 1.00000000 128.19999695 339.28497314 -118.33197021 90.98116302 2 -1 0 
146 3 2 1.00000000 128.19999695 342.40531158 -116.45854950 89.13828278 2 -1 0 
147 3 1 -1.00000000 129.10000610 345.07179260 -114.39633179 87.60681915 2 -1 0 
148 3 2 1.00000000 128.19999695 346.04019928 -111.76632690 90.29620361 2 -1 0 
149 3 1 -1.00000000 129.10000610 348.11026764 -109.41230774 92.09223175 2 -1 0 
150 3 2 1.00000000 128.19999695 349.13485718 -110.05873871 95.42845917 2 -1 0 
151 4 2 1.00000000 128.19999695 -278.13014984 328.31853485 -10.82149410 -1 2 0 
152 4 1 -1.00000000 129.10000610 -276.80017090 331.45019531 -9.17742252 -1 2 0 
153 4 2 1.00000000 128.19999695 -278.58277130 331.56406403 -5.71169615 -1 2 0 
154 4 2 1.00000000 128.19999695 -279.56871796 333.48980713 -2.52847433 -1 2 0 
155 4 2 1.00000000 128.19999695 -279.17507935 337.45921326 -1.59871721 -1 2 0 
156 4 1 -1.00000000 129.10000610 -282.38188171 339.32028961 -1.32520914 -1 2 0 
157 4 2 1.00000000 128.19999695 -285.44550323 339.97960663 0.61646241 -1 2 0 
158 4 1 -1.00000000 129.10000610 -288.65517426 339.59902191 2.77037144 -1 2 0 
159 4 1 -1.00000000 129.10000610 -292.47485352 339.94976807 3.80157042 -1 2 0 
160 4 1 -1.00000000 129.10000610 -293.42981720 338.06053162 6.86783171 -1 2 0 
161 4 2 1.00000000 128.19999695 -291.60507202 338.03382874 10.30749607 -1 2 0 
162 4 1 -1.00000000 129.10000610 -291.81147003 340.87853241 12.78148460 -1 2 0 
163 4 1 -1.00000000 129.10000610 -292.72331238 344.19561005 14.07369137 -1 2 0 
164 4 1 -1.00000000 129.10000610 -291.36328125 346.63874054 16.67860794 -1 2 0 
165 4 2 1.00000000 128.19999695 -291.70666504 350.07899475 16.43987846 -1 2 0 
166 4 2 1.00000000 128.19999695 -291.17510223 351.86680984 19.74403572 -1 2 0 
167 4 1 -1.00000000 129.10000610 -288.03179932 351.55923462 21.50676918 -1 2 0 
168 4 1 -1.00000000 129.10000610 -284.87326813 350.07244873 23.25264740 -1 2 0 
169 4 2 1.00000000 128.19999695 -281.57302856 351.96099091 22.31624222 -1 2 0 
170 4 1 -1.00000000 129.10000610 -279.49131775 351.14292908 19.49426651 -1 2 0 
171 4 1 -1.00000000 129.10000610 -277.54526520 350.25231934 15.87338448 -1 2 0 
172 4 1 -1.00000000 129.10000610 -273.58506775 350.46173859 15.46433544 -1 2 0 
173 4 2 1.00000000 128.19999695 -272.36428070 354.08847427 14.60345650 -1 2 0 
174 4 1 -1.00000000 129.10000610 -274.69827271 356.30507660 12.54270363 -1 2 0 
175 4 1 -1.00000000 129.10000610 -272.66962433 359.02738190 10.83658886 -1 2 0 
176 4 2 1.00000000 128.19999695 -269.08184814 358.07240677 9.60941601 -1 2 0 
177 4 2 1.00000000 128.19999695 -269.35569763 355.48017120 7.34185314 -1 2 0 
178 4 2 1.00000000 128.19999695 -269.23130417 351.89126205 7.61350727 -1 2 0 
179 4 2 1.00000000 128.19999695 -268.33177948 349.30437469 10.29451370 -1 2 0 
180 4 2 1.00000000 128.19999695 -267.43399811 346.47505951 12.61796570 -1 2 0 
181 4 1 -1.00000000 129.10000610 -269.25022507 344.78643799 15.33891678 -1 2 0 
182 4 1 -1.00000000 129.10000610 -267.12904358 342.76519775 17.89882278 -1 2 0 
183 4 1 -1.00000000 129.10000610 -268.39406204 341.48605347 21.24114990 -1 2 0 
184 4 2 1.00000000 128.19999695 -270.23938751 343.44791412 23.73121262 -1 2 0 
185 4 2 1.00000000 128.19999695 -273.47476959 344.59860992 25.13724899 -1 2 0 
186 4 2 1.00000000 128.19999695 -276.36764526 343.40197754 27.49536133 -1 2 0 
187 4 1 -1.00000000 129.10000610 -277.03438568 343.05950165 31.56611824 -1 2 0 
188 4 2 1.00000000 128.19999695 -274.13639832 340.40369415 32.05472183 -1 2 0 
189 4 1 -1.00000000 129.10000610 -274.92390442 339.98142242 35.88494492 -1 2 0 
190 4 1 -1.00000000 129.10000610 -275.38265991 340.95761871 39.30341721 -1 2 0 
191 4 1 -1.00000000 129.10000610 -275.34234619 344.56661987 39.88321304 -1 2 0 
192 4 2 1.00000000 128.19999695 -274.68242645 347.74779510 41.87524033 -1 2 0 
193 4 1 -1.00000000 129.10000610 -270.64978027 348.30363464 41.13838196 -1 2 0 
194 4 2 1.00000000 128.19999695 -269.00305939 351.91231537 42.08207703 -1 2 0 
195 4 2 1.00000000 128.19999695 -265.82022095 351.98034668 42.70246506 -1 2 0 
196 4 2 1.00000000 128.19999695 -264.00681305 355.18645477 44.46068954 -1 2 0 
197 4 1 -1.00000000 129.10000610 -262.82513046 357.91317749 46.71922302 -1 2 0 
198 4 2 1.00000000 128.19999695 -260.17832947 359.91648865 48.88845444 -1 2 0 
199 4 1 -1.00000000 129.10000610 -259.08308411 360.79123688 52.40027237 -1 2 0 
200 4 2 1.00000000 128.19999695 -259.04707718 364.42875290 53.44535828 -1 2 0 
201 5 2 1.00000000 128.19999695 -316.95622253 -229.83210564 -208.14564425 -2 -1 -1 
202 5 1 -1.00000000 129.10000610 -319.25422668 -232.22840500 -209.53160167 -2 -1 -1 
203 5 2 1.00000000 128.19999695 -322.19380951 -232.40114975 -207.40977732 -2 -1 -1 
204 5 2 1.00000000 128.19999695 -325.31623077 -233.77128601 -205.48140359 -2 -1 -1 
205 5 2 1.00000000 128.19999695 -327.78150177 -236.57422447 -205.97313535 -2 -1 -1 
206 5 1 -1.00000000 129.10000610 -329.69537354 -236.36960030 -209.17001545 -2 -1 -1 
207 5 2 1.00000000 128.19999695 -327.75881958 -235.19487000 -212.31318712 -2 -1 -1 
208 5 1 -1.00000000 129.10000610 -325.42723846 -232.07147598 -212.97262955 -2 -1 -1 
209 5 1 -1.00000000 129.10000610 -323.30152893 -231.56063843 -216.56774235 -2 -1 -1 
210 5 1 -1.00000000 129.10000610 -324.66204071 -229.95611954 -219.57855701 -2 -1 -1 
211 5 2 1.00000000 128.19999695 -327.18148804 -232.50866508 -221.42890358 -2 -1 -1 
212 5 1 -1.00000000 129.10000610 -328.19042206 -235.81614113 -222.68642139 -2 -1 -1 
213 5 1 -1.00000000 129.10000610 -331.85691071 -236.25278473 -223.82356071 -2 -1 -1 
214 5 1 -1.00000000 129.10000610 -331.52223969 -238.53205299 -226.81817245 -2 -1 -1 
215 5 2 1.00000000 128.19999695 -332.30272675 -241.91142654 -225.01014519 -2 -1 -1 
216 5 2 1.00000000 128.19999695 -333.14443970 -245.64175415 -224.62428856 -2 -1 -1 
217 5 1 -1.00000000 129.10000610 -335.47891235 -247.99798965 -222.64908695 -2 -1 -1 
218 5 1 -1.00000000 129.10000610 -337.91165161 -249.68314362 -220.14010048 -2 -1 -1 
219 5 2 1.00000000 128.19999695 -339.77210236 -252.45747757 -218.63223267 -2 -1 -1 
220 5 1 -1.00000000 129.10000610 -337.88931274 -255.78909302 -217.95896530 -2 -1 -1 
221 5 1 -1.00000000 129.10000610 -335.43664551 -258.46025848 -217.81802464 -2 -1 -1 
222 5 1 -1.00000000 129.10000610 -333.41994476 -260.93910217 -216.07341385 -2 -1 -1 
223 5 2 1.00000000 128.19999695 -332.42625427 -264.50165558 -216.50678825 -2 -1 -1 
224 5 1 -1.00000000 129.10000610 -333.85587311 -268.00926208 -217.55300713 -2 -1 -1 
225 5 1 -1.00000000 129.10000610 -334.20137024 -271.41484833 -215.93926620 -2 -1 -1 
226 5 2 1.00000000 128.19999695 -332.21904755 -274.49856567 -215.38256550 -2 -1 -1 
227 5 2 1.00000000 128.19999695 -333.98191833 -277.31278229 -213.66724634 -2 -1 -1 
228 5 2 1.00000000 128.19999695 -336.47655487 -276.98512268 -210.68793440 -2 -1 -1 
229 5 2 1.00000000 128.19999695 -340.07894135 -277.15725708 -212.27333736 -2 -1 -1 
230 5 2 1.00000000 128.19999695 -341.05921936 -277.39648438 -215.78320885 -2 -1 -1 
231 5 1 -1.00000000 129.10000610 -338.53064728 -278.04649353 -218.55858231 -2 -1 -1 
232 5 1 -1.00000000 129.10000610 -338.00829315 -275.56366730 -221.59633350 -2 -1 -1 
233 5 1 -1.00000000 129.10000610 -337.14855957 -273.05551910 -224.14318657 -2 -1 -1 
234 5 2 1.00000000 128.19999695 -339.85218811 -270.62554550 -225.29139519 -2 -1 -1 
235 5 2 1.00000000 128.19999695 -342.06576538 -267.24710083 -225.56723404 -2 -1 -1 
236 5 2 1.00000000 128.19999695 -344.45819855 -264.94385529 -227.55165863 -2 -1 -1 
237 5 1 -1.00000000 129.10000610 -347.61812592 -262.53864288 -227.14479637 -2 -1 -1 
238 5 2 1.00000000 128.19999695 -350.68135071 -262.75224686 -224.76209068 -2 -1 -1 
239 5 1 -1.00000000 129.10000610 -349.52381134 -261.38674545 -221.54383850 -2 -1 -1 
240 5 1 -1.00000000 129.10000610 -350.58637238 -261.99740982 -217.92238140 -2 -1 -1 
241 5 1 -1.00000000 129.10000610 -349.29957581 -265.49786377 -217.51709461 -2 -1 -1 
242 5 2 1.00000000 128.19999695 -350.90382004 -268.32378006 -215.42002106 -2 -1 -1 
243 5 1 -1.00000000 129.10000610 -353.61431122 -269.37882614 -213.31976223 -2 -1 -1 
244 5 2 1.00000000 128.19999695 -355.89678574 -272.20489502 -212.05181646 -2 -1 -1 
245 5 2 1.00000000 128.19999695 -358.28395081 -270.72765350 -209.59901595 -2 -1 -1 
246 5 2 1.00000000 128.19999695 -361.33370209 -269.24138260 -207.98054487 -2 -1 -1 
247 5 1 -1.00000000 129.10000610 -361.31755829 -265.56334686 -208.22158939 -2 -1 -1 
248 5 2 1.00000000 128.19999695 -361.73043060 -263.78558350 -211.71621513 -2 -1 -1 
249 5 1 -1.00000000 129.10000610 -361.19957733 -262.73260498 -215.38546848 -2 -1 -1 
250 5 2 1.00000000 128.19999695 -359.45984268 -259.21489716 -214.63206053 -2 -1 -1 
251 6 2 1.00000000 128.19999695 491.82173920 -476.58641434 -52.38751602 2 -2 0 
252 6 1 -1.00000000 129.10000610 489.33614349 -479.07373047 -53.63384628 2 -2 0 
253 6 2 1.00000000 128.19999695 490.07072449 -482.26473999 -55.64095306 2 -2 0 
254 6 2 1.00000000 128.19999695 487.94104767 -485.07373047 -56.43453598 2 -2 0 
255 6 2 1.00000000 128.19999695 486.02458191 -486.71228027 -53.16210556 2 -2 0 
256 6 1 -1.00000000 129.10000610 483.45037842 -488.98804474 -55.00082397 2 -2 0 
257 6 2 1.00000000 128.19999695 480.84086609 -491.17214203 -56.53096008 2 -2 0 
258 6 1 -1.00000000 129.10000610 480.96197510 -495.18055725 -57.20758820 2 -2 0 
259 6 1 -1.00000000 129.10000610 484.42734528 -496.16095734 -58.04119873 2 -2 0 
260 6 1 -1.00000000 129.10000610 488.46029663 -496.30048370 -57.66602707 2 -2 0 
261 6 2 1.00000000 128.19999695 490.21681976 -493.05111694 -57.40862656 2 -2 0 
262 6 1 -1.00000000 129.10000610 490.99703217 -490.46434784 -60.35706329 2 -2 0 
263 6 1 -1.00000000 129.10000610 491.78944397 -486.71945953 -62.04373169 2 -2 0 
264 6 1 -1.00000000 129.10000610 488.78542328 -486.41896057 -64.46490479 2 -2 0 
265 6 2 1.00000000 128.19999695 486.74746704 -489.07251740 -66.41835785 2 -2 0 
266 6 2 1.00000000 128.19999695 488.40838623 -489.04322815 -69.88178253 2 -2 0 
267 6 1 -1.00000000 129.10000610 488.72292328 -491.12326813 -73.11784363 2 -2 0 
268 6 1 -1.00000000 129.10000610 487.01357269 -488.85649872 -75.26268005 2 -2 0 
269 6 2 1.00000000 128.19999695 487.21777344 -488.96553040 -78.93447113 2 -2 0 
270 6 1 -1.00000000 129.10000610 486.94309235 -486.58551788 -82.02983093 2 -2 0 
271 6 1 -1.00000000 129.10000610 488.64176178 -483.36588287 -80.39208221 2 -2 0 
272 6 1 -1.00000000 129.10000610 486.68370819 -481.17049408 -78.11598969 2 -2 0 
273 6 2 1.00000000 128.19999695 483.83090210 -478.92913055 -79.01314545 2 -2 0 
274 6 1 -1.00000000 129.10000610 484.05082703 -477.45879745 -82.24817657 2 -2 0 
275 6 1 -1.00000000 129.10000610 486.18533325 -477.25331116 -85.26807404 2 -2 0 
276 6 2 1.00000000 128.19999695 489.61773682 -478.68047333 -83.70727539 2 -2 0 
277 6 2 1.00000000 128.19999695 490.07508087 -482.01145172 -85.49125671 2 -2 0 
278 6 2 1.00000000 128.19999695 487.76211548 -482.80844116 -88.39185333 2 -2 0 
279 6 2 1.00000000 128.19999695 484.90093231 -485.58795929 -87.63782501 2 -2 0 
280 6 2 1.00000000 128.19999695 483.23106384 -488.88839722 -88.32067871 2 -2 0 
281 6 1 -1.00000000 129.10000610 484.21089172 -491.93588257 -86.49650574 2 -2 0 
282 6 1 -1.00000000 129.10000610 486.13918304 -495.26985931 -86.06159973 2 -2 0 
283 6 1 -1.00000000 129.10000610 485.51357269 -497.73785400 -83.20991516 2 -2 0 
284 6 2 1.00000000 128.19999695 488.75939941 -497.70085144 -81.24111176 2 -2 0 
285 6 2 1.00000000 128.19999695 492.17096710 -499.19822693 -81.98339081 2 -2 0 
286 6 2 1.00000000 128.19999695 495.83537292 -499.97513580 -81.70648956 2 -2 0 
287 6 1 -1.00000000 129.10000610 497.80770874 -496.89967346 -82.62446594 2 -2 0 
288 6 2 1.00000000 128.19999695 496.82411194 -494.78334045 -86.04779816 2 -2 0 
289 6 1 -1.00000000 129.10000610 495.92768860 -497.36138916 -88.52735901 2 -2 0 
290 6 1 -1.00000000 129.10000610 497.75163269 -498.76695251 -91.00975037 2 -2 0 
291 6 1 -1.00000000 129.10000610 497.23772430 -501.82481384 -93.18003082 2 -2 0 
292 6 2 1.00000000 128.19999695 494.01005554 -501.47565460 -94.99843597 2 -2 0 
293 6 1 -1.00000000 129.10000610 491.56123352 -498.35260010 -94.74806976 2 -2 0 
294 6 2 1.00000000 128.19999695 491.15250397 -494.61267853 -95.89784241 2 -2 0 
295 6 2 1.00000000 128.19999695 491.59230042 -491.08891296 -94.21586609 2 -2 0 
296 6 2 1.00000000 128.19999695 491.24327850 -487.35961914 -94.09508514 2 -2 0 
297 6 1 -1.00000000 129.10000610 492.14073181 -486.23931885 -97.83155823 2 -2 0 
298 6 2 1.00000000 128.19999695 494.84331512 -484.23404694 -99.43796539 2 -2 0 
299 6 1 -1.00000000 129.10000610 496.51647949 -480.60735321 -100.04249573 2 -2 0 
300 6 2 1.00000000 128.19999695 497.58583832 -477.04881287 -99.44414520 2 -2 0 
301 7 2 1.00000000 128.19999695 2.11246562 -44.28642273 -786.54410934 0 0 -4 
302 7 1 -1.00000000 129.10000610 2.19230652 -44.19980621 -790.62314606 0 0 -4 
303 7 2 1.00000000 128.19999695 0.07787403 -41.48764420 -791.58591461 0 0 -4 
304 7 2 1.00000000 128.19999695 -3.04985571 -40.70702362 -789.29863358 0 0 -4 
305 7 2 1.00000000 128.19999695 -4.33540678 -38.35548019 -786.35541534 0 0 -4 
306 7 1 -1.00000000 129.10000610 -7.59209251 -35.91691971 -786.65095520 0 0 -4 
307 7 2 1.00000000 128.19999695 -10.86803532 -37.62146759 -785.47076035 0 0 -4 
308 7 1 -1.00000000 129.10000610 -14.56801701 -37.83805847 -786.59972000 0 0 -4 
309 7 1 -1.00000000 129.10000610 -14.85423660 -38.47907639 -790.37761688 0 0 -4 
310 7 1 -1.00000000 129.10000610 -15.97346783 -34.95891190 -791.84846115 0 0 -4 
311 7 2 1.00000000 128.19999695 -16.78528786 -32.99249649 -794.80710220 0 0 -4 
312 7 1 -1.00000000 129.10000610 -19.41551971 -30.32482719 -794.61918640 0 0 -4 
313 7 1 -1.00000000 129.10000610 -18.21427727 -27.53447533 -792.09297562 0 0 -4 
314 7 1 -1.00000000 129.10000610 -19.23852539 -25.21911430 -788.92645264 0 0 -4 
315 7 2 1.00000000 128.19999695 -16.55237007 -24.74377441 -786.15572739 0 0 -4 
316 7 2 1.00000000 128.19999695 -13.23347664 -26.72223473 -787.82460022 0 0 -4 
317 7 1 -1.00000000 129.10000610 -10.89198780 -24.96966934 -790.48265076 0 0 -4 
318 7 1 -1.00000000 129.10000610 -12.21280670 -21.85420609 -792.58409882 0 0 -4 
319 7 2 1.00000000 128.19999695 -15.61825752 -20.76238441 -792.98401642 0 0 -4 
320 7 1 -1.00000000 129.10000610 -16.28049469 -19.56402016 -796.49283600 0 0 -4 
321 7 1 -1.00000000 129.10000610 -12.95838356 -19.50151253 -798.41777611 0 0 -4 
322 7 1 -1.00000000 129.10000610 -11.24560452 -21.64647865 -800.98373795 0 0 -4 
323 7 2 1.00000000 128.19999695 -12.02567863 -25.43580437 -801.83272743 0 0 -4 
324 7 1 -1.00000000 129.10000610 -15.85282803 -26.76481056 -801.98111725 0 0 -4 
325 7 1 -1.00000000 129.10000610 -17.77628899 -24.01022339 -803.78602409 0 0 -4 
326 7 2 1.00000000 128.19999695 -18.29001999 -20.34357452 -804.39082909 0 0 -4 
327 7 2 1.00000000 128.19999695 -16.19689560 -17.30375290 -803.74940300 0 0 -4 
328 7 2 1.00000000 128.19999695 -16.27942085 -14.90293312 -800.86597824 0 0 -4 
329 7 2 1.00000000 128.19999695 -13.92438030 -12.00440788 -798.75145340 0 0 -4 
330 7 2 1.00000000 128.19999695 -10.28666210 -13.34350395 -797.87691498 0 0 -4 
331 7 1 -1.00000000 129.10000610 -7.11635828 -12.00737572 -796.63505554 0 0 -4 
332 7 1 -1.00000000 129.10000610 -3.51964426 -12.14151192 -796.02130127 0 0 -4 
333 7 1 -1.00000000 129.10000610 -2.21251535 -10.53656578 -792.83715057 0 0 -4 
334 7 2 1.00000000 128.19999695 -5.04019117 -11.25113964 -790.09294891 0 0 -4 
335 7 2 1.00000000 128.19999695 -4.06439066 -14.83556557 -787.77822495 0 0 -4 
336 7 2 1.00000000 128.19999695 -1.38551414 -17.15690041 -788.73102570 0 0 -4 
337 7 1 -1.00000000 129.10000610 -0.53376591 -20.03923035 -786.61312485 0 0 -4 
338 7 2 1.00000000 128.19999695 -2.62966371 -22.81011009 -785.68111038 0 0 -4 
339 7 1 -1.00000000 129.10000610 -5.69206762 -25.14252853 -785.61764908 0 0 -4 
340 7 1 -1.00000000 129.10000610 -7.05192041 -24.61907005 -782.38086700 0 0 -4 
341 7 1 -1.00000000 129.10000610 -9.36542511 -21.34337234 -782.90383148 0 0 -4 
342 7 2 1.00000000 128.19999695 -11.22413445 -18.25271797 -784.11467361 0 0 -4 
343 7 1 -1.00000000 129.10000610 -10.32392883 -14.68365002 -785.11130142 0 0 -4 
344 7 2 1.00000000 128.19999695 -10.98713970 -13.11727142 -788.57590485 0 0 -4 
345 7 2 1.00000000 128.19999695 -12.78441238 -9.51086998 -787.39268875 0 0 -4 
346 7 2 1.00000000 128.19999695 -14.89459229 -8.38852119 -790.47195053 0 0 -4 
347 7 1 -1.00000000 129.10000610 -18.47541618 -7.05481625 -788.68369293 0 0 -4 
348 7 2 1.00000000 128.19999695 -17.26990700 -3.88634419 -786.82905197 0 0 -4 
349 7 1 -1.00000000 129.10000610 -14.96709824 -2.45995879 -789.45684814 0 0 -4 
350 7 2 1.00000000 128.19999695 -15.71693802 1.32236695 -789.98774338 0 0 -4 
351 8 2 1.00000000 128.19999695 1.43185186 -201.74461174 642.94683266 0 -1 3 
352 8 1 -1.00000000 129.10000610 2.47397566 -200.38591146 646.56234169 0 -1 3 
353 8 2 1.00000000 128.19999695 5.80239964 -200.75666046 648.11611557 0 -1 3 
354 8 2 1.00000000 128.19999695 5.37501860 -200.69887829 651.53842545 0 -1 3 
355 8 2 1.00000000 128.19999695 3.08541822 -203.33981752 653.40136909 0 -1 3 
356 8 1 -1.00000000 129.10000610 4.15828180 -204.75725937 656.67043304 0 -1 3 
357 8 2 1.00000000 128.19999695 7.07959080 -206.57968199 658.40376663 0 -1 3 
358 8 1 -1.00000000 129.10000610 10.28976154 -204.56293678 659.25643921 0 -1 3 
359 8 1 -1.00000000 129.10000610 12.72481441 -207.07676804 661.07211685 0 -1 3 
360 8 1 -1.00000000 129.10000610 15.77624702 -206.40132910 658.88636398 0 -1 3 
361 8 2 1.00000000 128.19999695 18.90099907 -207.90558845 658.91746902 0 -1 3 
362 8 1 -1.00000000 129.10000610 21.77214241 -210.80884290 658.83019638 0 -1 3 
363 8 1 -1.00000000 129.10000610 24.16258240 -212.39992237 656.03020477 0 -1 3 
364 8 1 -1.00000000 129.10000610 24.83247185 -213.81369495 652.68636131 0 -1 3 
365 8 2 1.00000000 128.19999695 24.94667625 -215.98601437 649.61100388 0 -1 3 
366 8 2 1.00000000 128.19999695 23.38049316 -217.33953476 646.47272301 0 -1 3 
367 8 1 -1.00000000 129.10000610 25.97902870 -217.04768562 643.85656738 0 -1 3 
368 8 1 -1.00000000 129.10000610 26.66088676 -217.33703423 639.87899399 0 -1 3 
369 8 2 1.00000000 128.19999695 26.45563698 -217.50413036 635.91752911 0 -1 3 