ITEM: TIMESTEP
43250000 
ITEM: NUMBER OF ATOMS 
25000 
ITEM: BOX BOUNDS pp pp pp 
-103.678017 103.678017 
-103.678017 103.678017 
-103.678017 103.678017 
ITEM: ATOMS id mol type q mass xu yu zu ix iy iz 
1 1 2 1.00000000 128.19999695 519.57418060 -143.92805481 -329.15058136 3 -1 -2 
2 1 1 -1.00000000 129.10000610 516.03460693 -144.53170013 -327.57723999 2 -1 -2 
3 1 2 1.00000000 128.19999695 513.68379974 -145.70042038 -324.29380798 2 -1 -2 
4 1 2 1.00000000 128.19999695 510.92972565 -144.05294037 -322.61953735 2 -1 -2 
5 1 2 1.00000000 128.19999695 508.09377289 -145.04550171 -320.76385498 2 -1 -2 
6 1 1 -1.00000000 129.10000610 506.60327148 -148.20036316 -322.84173584 2 -1 -2 
7 1 2 1.00000000 128.19999695 508.10868835 -151.44733429 -323.37520599 2 -1 -2 
8 1 1 -1.00000000 129.10000610 505.78318024 -154.13022232 -324.64415741 2 -1 -2 
9 1 1 -1.00000000 129.10000610 507.97148132 -157.05749893 -326.00820160 2 -1 -2 
10 1 1 -1.00000000 129.10000610 509.46569061 -159.28012848 -323.07675171 2 -1 -2 
11 1 2 1.00000000 128.19999695 509.00389099 -163.02137756 -321.99178314 2 -1 -2 
12 1 1 -1.00000000 129.10000610 508.27198029 -164.15540314 -325.63910675 2 -1 -2 
13 1 1 -1.00000000 129.10000610 507.44434357 -168.06051254 -325.75604248 2 -1 -2 
14 1 1 -1.00000000 129.10000610 509.34263611 -169.93145370 -322.75918579 2 -1 -2 
15 1 2 1.00000000 128.19999695 512.55731201 -171.96950531 -323.42225647 2 -1 -2 
16 1 2 1.00000000 128.19999695 515.67358398 -170.37518692 -322.12716675 2 -1 -2 
17 1 1 -1.00000000 129.10000610 518.52007294 -168.14636612 -321.69377899 3 -1 -2 
18 1 1 -1.00000000 129.10000610 520.07509613 -165.15964508 -323.56924438 3 -1 -2 
19 1 2 1.00000000 128.19999695 519.41263580 -162.50137329 -326.06108856 3 -1 -2 
20 1 1 -1.00000000 129.10000610 521.41323090 -159.38988876 -327.52339172 3 -1 -2 
21 1 1 -1.00000000 129.10000610 518.98073578 -156.46005249 -328.42962646 3 -1 -2 
22 1 1 -1.00000000 129.10000610 516.64933014 -155.09531021 -330.88527679 2 -1 -2 
23 1 2 1.00000000 128.19999695 517.66102600 -152.78963852 -333.96385956 2 -1 -2 
24 1 1 -1.00000000 129.10000610 521.57318115 -152.55250931 -335.36316681 3 -1 -2 
25 1 1 -1.00000000 129.10000610 523.88793945 -149.95323563 -337.27425385 3 -1 -2 
26 1 2 1.00000000 128.19999695 527.03855896 -148.96683502 -336.21008301 3 -1 -2 
27 1 2 1.00000000 128.19999695 527.80505371 -149.67988205 -332.15318298 3 -1 -2 
28 1 2 1.00000000 128.19999695 531.38378906 -148.84473801 -331.41581726 3 -1 -2 
29 1 2 1.00000000 128.19999695 534.92075348 -147.40705109 -332.24983978 3 -1 -2 
30 1 2 1.00000000 128.19999695 536.52708435 -143.61685944 -332.29576111 3 -1 -2 
31 1 1 -1.00000000 129.10000610 534.02420807 -140.74280548 -333.62006378 3 -1 -2 
32 1 1 -1.00000000 129.10000610 531.31269836 -139.69014740 -330.96868896 3 -1 -2 
33 1 1 -1.00000000 129.10000610 527.68156433 -140.52505493 -331.44497681 3 -1 -2 
34 1 2 1.00000000 128.19999695 524.81538391 -139.77722168 -329.15629578 3 -1 -2 
35 1 2 1.00000000 128.19999695 525.42642975 -137.24932861 -326.40215302 3 -1 -2 
36 1 2 1.00000000 128.19999695 524.91562653 -134.71158600 -323.53026581 3 -1 -2 
37 1 1 -1.00000000 129.10000610 526.40121460 -131.06963348 -323.16474915 3 -1 -2 
38 1 2 1.00000000 128.19999695 529.45700073 -128.83855438 -324.55305481 3 -1 -2 
39 1 1 -1.00000000 129.10000610 528.84436798 -127.50704193 -328.05751801 3 -1 -2 
40 1 1 -1.00000000 129.10000610 526.22694397 -127.71587372 -331.03025055 3 -1 -2 
41 1 1 -1.00000000 129.10000610 522.71851349 -125.84721375 -331.34036255 3 -1 -2 
42 1 2 1.00000000 128.19999695 520.35382843 -125.62332916 -328.72801208 3 -1 -2 
43 1 1 -1.00000000 129.10000610 517.15126038 -123.61853027 -327.68199158 2 -1 -2 
44 1 2 1.00000000 128.19999695 513.81005096 -122.51103973 -328.58156586 2 -1 -2 
45 1 2 1.00000000 128.19999695 510.29843903 -121.47908020 -327.67286682 2 -1 -2 
46 1 2 1.00000000 128.19999695 507.62154388 -119.50923157 -327.80814362 2 -1 -2 
47 1 1 -1.00000000 129.10000610 505.67304993 -118.29733276 -324.60831451 2 -1 -2 
48 1 2 1.00000000 128.19999695 504.88037109 -121.13001251 -322.15421295 2 -1 -2 
49 1 1 -1.00000000 129.10000610 503.67688751 -121.27117157 -318.54578400 2 -1 -2 
50 1 2 1.00000000 128.19999695 500.43945312 -119.46784973 -316.84984589 2 -1 -2 
51 2 2 1.00000000 128.19999695 545.17973328 398.59726334 -337.11422729 3 2 -2 
52 2 1 -1.00000000 129.10000610 546.37937164 396.26598549 -339.99207306 3 2 -2 
53 2 2 1.00000000 128.19999695 545.44451141 392.68398666 -340.18199158 3 2 -2 
54 2 2 1.00000000 128.19999695 545.06535339 390.77977753 -343.25630188 3 2 -2 
55 2 2 1.00000000 128.19999695 542.90710449 389.99959373 -346.90889740 3 2 -2 
56 2 1 -1.00000000 129.10000610 539.75110626 388.07190514 -346.24761200 3 2 -2 
57 2 2 1.00000000 128.19999695 537.06732178 390.12772560 -344.45535278 3 2 -2 
58 2 1 -1.00000000 129.10000610 536.36566162 391.90528870 -341.18974304 3 2 -2 
59 2 1 -1.00000000 129.10000610 539.52416992 392.59751511 -339.42446136 3 2 -2 
60 2 1 -1.00000000 129.10000610 539.81006622 391.22376442 -336.01869965 3 2 -2 
61 2 2 1.00000000 128.19999695 536.43671417 391.00134659 -333.91856384 3 2 -2 
62 2 1 -1.00000000 129.10000610 536.88409424 389.77751160 -330.33401489 3 2 -2 
63 2 1 -1.00000000 129.10000610 536.26609802 389.86335945 -326.64496613 3 2 -2 
64 2 1 -1.00000000 129.10000610 536.38738251 390.91674423 -323.09378815 3 2 -2 
65 2 2 1.00000000 128.19999695 532.99202728 392.60182762 -322.27334595 3 2 -2 
66 2 2 1.00000000 128.19999695 532.12866974 394.45612144 -319.22980499 3 2 -2 
67 2 1 -1.00000000 129.10000610 530.40424347 394.99857521 -315.94298553 3 2 -2 
68 2 1 -1.00000000 129.10000610 532.65180969 396.75777817 -313.35942078 3 2 -2 
69 2 2 1.00000000 128.19999695 533.02477264 398.14257050 -309.75180054 3 2 -1 
70 2 1 -1.00000000 129.10000610 533.44127655 394.99453735 -307.59376526 3 2 -1 
71 2 1 -1.00000000 129.10000610 536.00990295 393.26257324 -309.95628357 3 2 -1 
72 2 1 -1.00000000 129.10000610 534.63049316 389.70112419 -310.37676239 3 2 -1 
73 2 2 1.00000000 128.19999695 536.10617065 386.15134430 -310.94221497 3 2 -1 
74 2 1 -1.00000000 129.10000610 533.17736053 384.64381027 -308.61705780 3 2 -1 
75 2 1 -1.00000000 129.10000610 529.51963806 383.68163681 -309.28117371 3 2 -1 
76 2 2 1.00000000 128.19999695 527.48925018 384.58403969 -312.21164703 3 2 -2 
77 2 2 1.00000000 128.19999695 524.26691437 384.28004456 -314.18347931 3 2 -2 
78 2 2 1.00000000 128.19999695 521.60505676 387.02759171 -313.00669098 3 2 -2 
79 2 2 1.00000000 128.19999695 519.63540649 389.94318008 -311.99559784 3 2 -2 
80 2 2 1.00000000 128.19999695 516.15038300 390.76896477 -311.20024109 2 2 -2 
81 2 1 -1.00000000 129.10000610 512.55918121 390.29551315 -310.92893219 2 2 -1 
82 2 1 -1.00000000 129.10000610 510.57097626 387.69215393 -312.82269287 2 2 -2 
83 2 1 -1.00000000 129.10000610 509.03247070 390.01014709 -315.63465881 2 2 -2 
84 2 2 1.00000000 128.19999695 511.55309296 391.52527237 -318.27664948 2 2 -2 
85 2 2 1.00000000 128.19999695 515.52496338 392.90778923 -317.97806549 2 2 -2 
86 2 2 1.00000000 128.19999695 519.01554108 395.20349884 -318.25234222 3 2 -2 
87 2 1 -1.00000000 129.10000610 519.10742188 396.50475121 -322.15294647 3 2 -2 
88 2 2 1.00000000 128.19999695 521.06419373 398.94405842 -324.54261017 3 2 -2 
89 2 1 -1.00000000 129.10000610 522.43479156 401.71331406 -321.53373718 3 2 -2 
90 2 1 -1.00000000 129.10000610 526.06460571 402.37149143 -320.68689728 3 2 -2 
91 2 1 -1.00000000 129.10000610 527.86491394 405.38891125 -321.91362000 3 2 -2 
92 2 2 1.00000000 128.19999695 527.73143005 407.94033146 -324.48397827 3 2 -2 
93 2 1 -1.00000000 129.10000610 529.97105408 410.92387033 -324.50718689 3 2 -2 
94 2 2 1.00000000 128.19999695 531.19471741 413.68234706 -326.74156189 3 2 -2 
95 2 2 1.00000000 128.19999695 529.66166687 417.19155288 -326.88190460 3 2 -2 
96 2 2 1.00000000 128.19999695 529.37858582 420.04641628 -324.60671234 3 2 -2 
97 2 1 -1.00000000 129.10000610 531.59521484 423.23093605 -325.03720093 3 2 -2 
98 2 2 1.00000000 128.19999695 534.58531189 423.44934464 -323.01056671 3 2 -2 
99 2 1 -1.00000000 129.10000610 537.59547424 421.50760984 -323.38655853 3 2 -2 
100 2 2 1.00000000 128.19999695 540.84909821 420.53367186 -322.43645477 3 2 -2 
101 3 2 1.00000000 128.19999695 336.44837189 -135.38709259 23.78689003 2 -1 0 
102 3 1 -1.00000000 129.10000610 332.74706268 -136.88976288 23.79416847 2 -1 0 
103 3 2 1.00000000 128.19999695 330.88883972 -135.51602936 26.85078430 2 -1 0 
104 3 2 1.00000000 128.19999695 329.79056549 -132.09469604 25.55409622 2 -1 0 
105 3 2 1.00000000 128.19999695 332.11473846 -129.36399078 26.92076874 2 -1 0 
106 3 1 -1.00000000 129.10000610 334.38246155 -129.00996399 29.60857773 2 -1 0 
107 3 2 1.00000000 128.19999695 336.84619904 -127.23088074 31.85074615 2 -1 0 
108 3 1 -1.00000000 129.10000610 337.94992065 -128.19563293 35.26707077 2 -1 0 
109 3 1 -1.00000000 129.10000610 339.79063416 -130.84706879 37.51627731 2 -1 0 
110 3 1 -1.00000000 129.10000610 337.16419220 -129.60034180 40.55849838 2 -1 0 
111 3 2 1.00000000 128.19999695 336.60632324 -130.39697266 44.49811935 2 -1 0 
112 3 1 -1.00000000 129.10000610 336.52867126 -126.88442993 46.01346207 2 -1 0 
113 3 1 -1.00000000 129.10000610 338.93475342 -124.00131226 45.34548950 2 -1 0 
114 3 1 -1.00000000 129.10000610 341.12144470 -124.15972900 42.05442047 2 -1 0 
115 3 2 1.00000000 128.19999695 344.59873199 -122.61306000 42.41096115 2 -1 0 
116 3 2 1.00000000 128.19999695 344.02496338 -118.79643250 43.57091141 2 -1 0 
117 3 1 -1.00000000 129.10000610 346.11522675 -116.51870728 45.36668777 2 -1 0 
118 3 1 -1.00000000 129.10000610 349.42986298 -115.18531799 47.06308746 2 -1 0 
119 3 2 1.00000000 128.19999695 348.10388184 -111.86606598 49.03826904 2 -1 0 
120 3 1 -1.00000000 129.10000610 350.91328430 -110.62969208 50.78500366 2 -1 0 
121 3 1 -1.00000000 129.10000610 353.50143814 -110.76759338 53.69367218 2 -1 0 
122 3 1 -1.00000000 129.10000610 354.99905777 -109.71997070 56.68336105 2 -1 0 
123 3 2 1.00000000 128.19999695 356.57005692 -107.29210663 59.02933121 2 -1 0 
124 3 1 -1.00000000 129.10000610 353.79422379 -104.46997833 58.96138000 2 -1 0 
125 3 1 -1.00000000 129.10000610 352.26028442 -102.29224396 55.89451981 2 0 0 
126 3 2 1.00000000 128.19999695 353.23298645 -104.06519318 52.57533264 2 -1 0 
127 3 2 1.00000000 128.19999695 356.78246689 -103.88913727 52.07287979 2 -1 0 
128 3 2 1.00000000 128.19999695 360.30081177 -103.94027710 50.53589630 2 -1 0 
129 3 2 1.00000000 128.19999695 363.85688400 -102.80806732 51.05795670 2 0 0 
130 3 2 1.00000000 128.19999695 366.17535782 -104.56225586 53.37010956 2 -1 0 
131 3 1 -1.00000000 129.10000610 367.80364990 -108.18471527 52.87611008 2 -1 0 
132 3 1 -1.00000000 129.10000610 365.19405365 -110.03067017 51.22695160 2 -1 0 
133 3 1 -1.00000000 129.10000610 363.74301910 -112.91346741 53.17032242 2 -1 0 
134 3 2 1.00000000 128.19999695 365.95019531 -115.72144318 54.92452240 2 -1 0 
135 3 2 1.00000000 128.19999695 369.65021896 -115.34608459 54.90725327 2 -1 0 
136 3 2 1.00000000 128.19999695 370.76683426 -117.96070862 52.14086914 2 -1 0 
137 3 1 -1.00000000 129.10000610 371.97743607 -116.44300842 49.36660767 2 -1 0 
138 3 2 1.00000000 128.19999695 370.50871658 -115.70970917 45.93658829 2 -1 0 
139 3 1 -1.00000000 129.10000610 370.80048752 -112.40924072 43.85945511 2 -1 0 
140 3 1 -1.00000000 129.10000610 370.94437027 -108.59092712 43.02309799 2 -1 0 
141 3 1 -1.00000000 129.10000610 369.26594543 -104.77640533 43.31320190 2 -1 0 
142 3 2 1.00000000 128.19999695 369.82984924 -101.63694763 44.92483902 2 0 0 
143 3 1 -1.00000000 129.10000610 371.49644852 -102.18167114 48.31101608 2 0 0 
144 3 2 1.00000000 128.19999695 373.23799133 -103.09754181 51.88982773 2 0 0 
145 3 2 1.00000000 128.19999695 377.13037109 -103.02812958 51.08807373 2 0 0 
146 3 2 1.00000000 128.19999695 380.39051056 -100.96268463 49.87477493 2 0 0 
147 3 1 -1.00000000 129.10000610 380.52026367 -97.51688385 51.62224579 2 0 0 
148 3 2 1.00000000 128.19999695 379.45336151 -94.53744507 53.80490494 2 0 0 
149 3 1 -1.00000000 129.10000610 375.76086044 -93.91293335 53.18867493 2 0 0 
150 3 2 1.00000000 128.19999695 371.98903656 -94.06475067 53.11692429 2 0 0 
151 4 2 1.00000000 128.19999695 -328.09784698 406.18360996 59.59867477 -2 2 0 
152 4 1 -1.00000000 129.10000610 -328.69812012 403.55405617 61.71249771 -2 2 0 
153 4 2 1.00000000 128.19999695 -330.26084137 403.32720375 65.29293060 -2 2 0 
154 4 2 1.00000000 128.19999695 -333.46268463 403.37070465 67.39167023 -2 2 0 
155 4 2 1.00000000 128.19999695 -334.35158539 406.78306723 69.24639130 -2 2 0 
156 4 1 -1.00000000 129.10000610 -331.24572754 409.21140957 69.22940826 -2 2 0 
157 4 2 1.00000000 128.19999695 -328.06008148 410.17757607 71.15119934 -2 2 0 
158 4 1 -1.00000000 129.10000610 -325.65143585 407.21722031 71.66318512 -2 2 0 
159 4 1 -1.00000000 129.10000610 -322.04039764 407.38347816 70.16496277 -2 2 0 
160 4 1 -1.00000000 129.10000610 -320.60726166 409.03489447 67.27408600 -2 2 0 
161 4 2 1.00000000 128.19999695 -317.92266846 409.46662569 64.50708008 -2 2 0 
162 4 1 -1.00000000 129.10000610 -315.44699097 406.50398064 65.74803162 -2 2 0 
163 4 1 -1.00000000 129.10000610 -313.72686768 405.38508129 62.77571869 -2 2 0 
164 4 1 -1.00000000 129.10000610 -313.87545776 403.19599915 59.56795883 -2 2 0 
165 4 2 1.00000000 128.19999695 -314.88015747 403.30333710 55.81199265 -2 2 0 
166 4 2 1.00000000 128.19999695 -312.35670471 405.68190289 54.16630173 -2 2 0 
167 4 1 -1.00000000 129.10000610 -309.23273468 405.51983929 51.89254379 -1 2 0 
168 4 1 -1.00000000 129.10000610 -309.34050751 405.42310429 48.03381348 -1 2 0 
169 4 2 1.00000000 128.19999695 -307.23796844 407.91676569 46.56180954 -1 2 0 
170 4 1 -1.00000000 129.10000610 -303.17299652 408.14973497 46.34030151 -1 2 0 
171 4 1 -1.00000000 129.10000610 -301.17313385 404.87092590 45.70233917 -1 2 0 
172 4 1 -1.00000000 129.10000610 -299.25084686 404.34431171 42.73586655 -1 2 0 
173 4 2 1.00000000 128.19999695 -298.14199066 407.65953207 41.30228424 -1 2 0 
174 4 1 -1.00000000 129.10000610 -300.86778259 408.02931213 38.66964340 -1 2 0 
175 4 1 -1.00000000 129.10000610 -301.17785645 408.34636116 35.01079178 -1 2 0 
176 4 2 1.00000000 128.19999695 -297.67253876 408.15708447 33.24742508 -1 2 0 
177 4 2 1.00000000 128.19999695 -296.19057465 404.83511734 34.40604019 -1 2 0 
178 4 2 1.00000000 128.19999695 -295.17749786 402.62989616 36.91373825 -1 2 0 
179 4 2 1.00000000 128.19999695 -293.09711456 403.52495098 39.89001846 -1 2 0 
180 4 2 1.00000000 128.19999695 -290.01702881 401.72185898 41.36771774 -1 2 0 
181 4 1 -1.00000000 129.10000610 -287.06204987 402.64102936 42.80069733 -1 2 0 
182 4 1 -1.00000000 129.10000610 -283.96638489 401.26622581 40.83662415 -1 2 0 
183 4 1 -1.00000000 129.10000610 -281.48033905 401.57814121 44.01034164 -1 2 0 
184 4 2 1.00000000 128.19999695 -279.21875000 400.53950977 47.01857758 -1 2 0 
185 4 2 1.00000000 128.19999695 -281.32446289 398.22259140 48.64480591 -1 2 0 
186 4 2 1.00000000 128.19999695 -284.79297638 396.05748558 49.51422501 -1 2 0 
187 4 1 -1.00000000 129.10000610 -287.63283539 398.64530563 48.49053192 -1 2 0 
188 4 2 1.00000000 128.19999695 -286.80188751 402.26014137 49.55649948 -1 2 0 
189 4 1 -1.00000000 129.10000610 -286.82759094 406.05388260 48.88681412 -1 2 0 
190 4 1 -1.00000000 129.10000610 -287.38838959 408.42224979 51.90404510 -1 2 0 
191 4 1 -1.00000000 129.10000610 -288.07012939 411.26872754 49.60048676 -1 2 0 
192 4 2 1.00000000 128.19999695 -291.58489227 412.52379632 50.19463730 -1 2 0 
193 4 1 -1.00000000 129.10000610 -294.93347168 411.35995245 50.56094742 -1 2 0 
194 4 2 1.00000000 128.19999695 -297.00098419 408.80160809 48.05753708 -1 2 0 
195 4 2 1.00000000 128.19999695 -295.26844788 405.45720863 47.53244781 -1 2 0 
196 4 2 1.00000000 128.19999695 -295.92343140 401.77173424 48.17392731 -1 2 0 
197 4 1 -1.00000000 129.10000610 -297.38505554 399.30249882 45.64958572 -1 2 0 
198 4 2 1.00000000 128.19999695 -300.11865997 397.04386330 43.87760162 -1 2 0 
199 4 1 -1.00000000 129.10000610 -301.15980530 396.62290573 40.40207672 -1 2 0 
200 4 2 1.00000000 128.19999695 -302.79623413 393.03143692 39.97917557 -1 2 0 
201 5 2 1.00000000 128.19999695 -293.59384918 -206.14517546 -233.02273178 -1 -1 -1 
202 5 1 -1.00000000 129.10000610 -296.69635010 -207.73577961 -231.53672218 -1 -1 -1 
203 5 2 1.00000000 128.19999695 -299.24903107 -208.28997397 -228.56031799 -1 -1 -1 
204 5 2 1.00000000 128.19999695 -302.68545532 -208.90701163 -227.22688675 -1 -1 -1 
205 5 2 1.00000000 128.19999695 -306.19617462 -209.55575371 -225.71532249 -1 -1 -1 
206 5 1 -1.00000000 129.10000610 -305.31504822 -210.83302760 -222.01743793 -1 -1 -1 
207 5 2 1.00000000 128.19999695 -302.14495850 -211.84271669 -219.99060822 -1 -1 -1 
208 5 1 -1.00000000 129.10000610 -302.77022552 -214.30605507 -217.21421242 -1 -1 -1 
209 5 1 -1.00000000 129.10000610 -300.00606537 -215.87966919 -214.92087984 -1 -1 -1 
210 5 1 -1.00000000 129.10000610 -297.61917877 -213.70158386 -212.29257536 -1 -1 -1 
211 5 2 1.00000000 128.19999695 -294.57991791 -215.63256454 -211.60193491 -1 -1 -1 
212 5 1 -1.00000000 129.10000610 -291.97361755 -217.06456947 -214.03939915 -1 -1 -1 
213 5 1 -1.00000000 129.10000610 -289.74458313 -214.28660154 -215.32798338 -1 -1 -1 
214 5 1 -1.00000000 129.10000610 -291.07736206 -212.00822544 -218.13925171 -1 -1 -1 
215 5 2 1.00000000 128.19999695 -291.02221680 -208.56838202 -218.87980175 -1 -1 -1 
216 5 2 1.00000000 128.19999695 -291.55101776 -207.14067385 -222.35225773 -1 -1 -1 
217 5 1 -1.00000000 129.10000610 -293.52835083 -204.09812379 -221.50887775 -1 -1 -1 
218 5 1 -1.00000000 129.10000610 -295.16340637 -202.15654087 -218.72683525 -1 -1 -1 
219 5 2 1.00000000 128.19999695 -297.25143433 -199.32785225 -220.76212883 -1 -1 -1 
220 5 1 -1.00000000 129.10000610 -299.41555023 -197.28636360 -222.61229515 -1 -1 -1 
221 5 1 -1.00000000 129.10000610 -302.62599182 -195.81261730 -220.79728985 -1 -1 -1 
222 5 1 -1.00000000 129.10000610 -301.45402527 -193.07679939 -217.80445576 -1 -1 -1 
223 5 2 1.00000000 128.19999695 -298.02846527 -193.91066360 -216.78483295 -1 -1 -1 
224 5 1 -1.00000000 129.10000610 -294.51924896 -192.77027893 -216.49830246 -1 -1 -1 
225 5 1 -1.00000000 129.10000610 -290.89866638 -193.89713001 -215.99611473 -1 -1 -1 
226 5 2 1.00000000 128.19999695 -287.42197418 -195.12765598 -216.55775547 -1 -1 -1 
227 5 2 1.00000000 128.19999695 -286.00168610 -194.82926750 -220.17074871 -1 -1 -1 
228 5 2 1.00000000 128.19999695 -288.09594727 -195.83844662 -223.38209343 -1 -1 -1 
229 5 2 1.00000000 128.19999695 -291.77613068 -196.89452744 -223.23773670 -1 -1 -1 
230 5 2 1.00000000 128.19999695 -293.79463196 -193.83147717 -223.50383759 -1 -1 -1 
231 5 1 -1.00000000 129.10000610 -295.45443726 -195.15931129 -226.91731644 -1 -1 -1 
232 5 1 -1.00000000 129.10000610 -294.88023376 -197.73956394 -229.51496124 -1 -1 -1 
233 5 1 -1.00000000 129.10000610 -294.98016357 -197.06409931 -233.21965027 -1 -1 -1 
234 5 2 1.00000000 128.19999695 -296.31020355 -198.17803860 -236.17739487 -1 -1 -1 
235 5 2 1.00000000 128.19999695 -298.08379364 -199.20506001 -239.38158798 -1 -1 -1 
236 5 2 1.00000000 128.19999695 -299.96241760 -202.64524412 -239.52408218 -1 -1 -1 
237 5 1 -1.00000000 129.10000610 -302.38482666 -204.57143855 -236.79685783 -1 -1 -1 
238 5 2 1.00000000 128.19999695 -304.37178040 -203.79460478 -233.44906425 -1 -1 -1 
239 5 1 -1.00000000 129.10000610 -307.29222107 -205.49846327 -230.98170280 -1 -1 -1 
240 5 1 -1.00000000 129.10000610 -309.79483795 -202.89585257 -229.74382401 -1 -1 -1 
241 5 1 -1.00000000 129.10000610 -313.50871277 -202.95363522 -229.90998077 -2 -1 -1 
242 5 2 1.00000000 128.19999695 -316.76411438 -204.63614631 -230.80760193 -2 -1 -1 
243 5 1 -1.00000000 129.10000610 -319.24549103 -204.89643788 -228.41495705 -2 -1 -1 
244 5 2 1.00000000 128.19999695 -321.10803986 -205.04660034 -225.20935631 -2 -1 -1 
245 5 2 1.00000000 128.19999695 -324.50611115 -206.32786453 -224.38904572 -2 -1 -1 
246 5 2 1.00000000 128.19999695 -326.86425781 -205.37012541 -221.64332294 -2 -1 -1 
247 5 1 -1.00000000 129.10000610 -326.73840332 -202.37444067 -219.15429592 -2 -1 -1 
248 5 2 1.00000000 128.19999695 -325.03118134 -199.14454556 -218.91184330 -2 -1 -1 
249 5 1 -1.00000000 129.10000610 -322.24307251 -196.84115028 -220.42475891 -2 -1 -1 
250 5 2 1.00000000 128.19999695 -322.61223602 -194.05762100 -223.22931480 -2 -1 -1 
251 6 2 1.00000000 128.19999695 416.34855032 -517.30097198 -153.08071899 2 -2 -1 
252 6 1 -1.00000000 129.10000610 417.66673589 -519.37368011 -156.28511047 2 -3 -1 
253 6 2 1.00000000 128.19999695 417.59707689 -523.09400940 -154.93399811 2 -3 -1 
254 6 2 1.00000000 128.19999695 420.72249603 -525.34997559 -154.21821213 2 -3 -1 
255 6 2 1.00000000 128.19999695 423.24196529 -526.18310547 -151.30374146 2 -3 -1 
256 6 1 -1.00000000 129.10000610 425.47929192 -524.77986145 -148.61073303 2 -3 -1 
257 6 2 1.00000000 128.19999695 427.48727417 -521.94676208 -149.83923340 2 -3 -1 
258 6 1 -1.00000000 129.10000610 429.03236389 -518.57649994 -148.62397766 2 -3 -1 
259 6 1 -1.00000000 129.10000610 431.39936256 -520.16709900 -145.91834641 2 -3 -1 
260 6 1 -1.00000000 129.10000610 432.35811806 -518.76476288 -142.14864349 2 -3 -1 
261 6 2 1.00000000 128.19999695 435.24295044 -518.79155731 -139.42837524 2 -3 -1 
262 6 1 -1.00000000 129.10000610 438.63177109 -520.27163696 -138.70416260 2 -3 -1 
263 6 1 -1.00000000 129.10000610 440.79141808 -521.02563477 -135.53903961 2 -3 -1 
264 6 1 -1.00000000 129.10000610 438.93560791 -518.52568054 -133.19731140 2 -3 -1 
265 6 2 1.00000000 128.19999695 437.29783249 -517.99980164 -129.94021606 2 -2 -1 
266 6 2 1.00000000 128.19999695 434.65707588 -517.74536896 -127.37468719 2 -2 -1 
267 6 1 -1.00000000 129.10000610 431.01352882 -519.10032654 -126.50512695 2 -3 -1 
268 6 1 -1.00000000 129.10000610 430.14651680 -522.42960358 -127.48686981 2 -3 -1 
269 6 2 1.00000000 128.19999695 426.17451954 -522.46702576 -126.64962006 2 -3 -1 
270 6 1 -1.00000000 129.10000610 423.77762604 -523.04685211 -129.77252960 2 -3 -1 
271 6 1 -1.00000000 129.10000610 422.51092529 -524.55382538 -133.38619232 2 -3 -1 
272 6 1 -1.00000000 129.10000610 420.10629272 -527.10504150 -132.26396179 2 -3 -1 
273 6 2 1.00000000 128.19999695 418.38267946 -527.58489227 -128.95996094 2 -3 -1 
274 6 1 -1.00000000 129.10000610 414.68502588 -528.42298889 -127.82737732 2 -3 -1 
275 6 1 -1.00000000 129.10000610 414.20736182 -532.08906555 -128.06801605 2 -3 -1 
276 6 2 1.00000000 128.19999695 415.56319720 -535.04351044 -129.99392700 2 -3 -1 
277 6 2 1.00000000 128.19999695 419.47657585 -534.40763092 -129.90142822 2 -3 -1 
278 6 2 1.00000000 128.19999695 420.90463114 -536.72216034 -126.85740662 2 -3 -1 
279 6 2 1.00000000 128.19999695 420.65204096 -540.20690155 -125.47951508 2 -3 -1 
280 6 2 1.00000000 128.19999695 421.94358921 -540.86869812 -122.27799225 2 -3 -1 
281 6 1 -1.00000000 129.10000610 422.32295609 -539.61958313 -118.77287292 2 -3 -1 
282 6 1 -1.00000000 129.10000610 424.57252884 -538.16101074 -116.24584198 2 -3 -1 
283 6 1 -1.00000000 129.10000610 425.93122387 -534.41673279 -115.80838013 2 -3 -1 
284 6 2 1.00000000 128.19999695 423.71662331 -532.73802948 -113.37627411 2 -3 -1 
285 6 2 1.00000000 128.19999695 420.38742924 -530.91014862 -114.78820038 2 -3 -1 
286 6 2 1.00000000 128.19999695 417.50308371 -529.85136414 -116.87176514 2 -3 -1 
287 6 1 -1.00000000 129.10000610 416.87807775 -528.11981201 -120.06662750 2 -3 -1 
288 6 2 1.00000000 128.19999695 413.47414672 -526.14125824 -120.43366241 2 -3 -1 
289 6 1 -1.00000000 129.10000610 413.39106393 -522.13906097 -120.48080444 2 -3 -1 
290 6 1 -1.00000000 129.10000610 412.69817972 -521.53600311 -124.12693787 2 -3 -1 
291 6 1 -1.00000000 129.10000610 412.98575509 -518.21754456 -125.32183075 2 -2 -1 
292 6 2 1.00000000 128.19999695 416.29220498 -517.06888580 -125.84677887 2 -2 -1 
293 6 1 -1.00000000 129.10000610 418.58437634 -516.56585693 -122.70710754 2 -2 -1 
294 6 2 1.00000000 128.19999695 420.77528429 -519.86200714 -122.07067871 2 -3 -1 
295 6 2 1.00000000 128.19999695 420.42002773 -523.16776276 -119.54553986 2 -3 -1 
296 6 2 1.00000000 128.19999695 421.45503569 -522.73878479 -116.06089783 2 -3 -1 
297 6 1 -1.00000000 129.10000610 419.05648756 -521.80065155 -113.52501678 2 -3 -1 
298 6 2 1.00000000 128.19999695 418.55834961 -520.69616699 -109.88659668 2 -3 -1 
299 6 1 -1.00000000 129.10000610 419.62874413 -523.20008850 -107.63343048 2 -3 -1 
300 6 2 1.00000000 128.19999695 421.54566050 -525.84292603 -105.44093323 2 -3 -1 
301 7 2 1.00000000 128.19999695 -20.25793648 -20.57244110 -852.21253586 0 0 -4 
302 7 1 -1.00000000 129.10000610 -20.44699669 -20.09142685 -856.18049812 0 0 -4 
303 7 2 1.00000000 128.19999695 -18.85022545 -17.98923302 -859.12150764 0 0 -4 
304 7 2 1.00000000 128.19999695 -19.54914284 -17.38738632 -862.51284027 0 0 -4 
305 7 2 1.00000000 128.19999695 -22.72035980 -19.01827049 -862.93659973 0 0 -4 
306 7 1 -1.00000000 129.10000610 -26.28911400 -17.56054878 -862.63695526 0 0 -4 
307 7 2 1.00000000 128.19999695 -27.28069878 -14.07295322 -862.30858231 0 0 -4 
308 7 1 -1.00000000 129.10000610 -29.17949867 -10.80871582 -861.48305893 0 0 -4 
309 7 1 -1.00000000 129.10000610 -32.35348892 -9.05524635 -861.34123230 0 0 -4 
310 7 1 -1.00000000 129.10000610 -33.52634048 -5.57206106 -861.87501144 0 0 -4 
311 7 2 1.00000000 128.19999695 -35.55539322 -3.55531406 -859.68026161 0 0 -4 
312 7 1 -1.00000000 129.10000610 -38.46792603 -2.63699198 -857.76358604 0 0 -4 
313 7 1 -1.00000000 129.10000610 -38.41312027 0.12987857 -854.81068993 0 0 -4 
314 7 1 -1.00000000 129.10000610 -40.32634354 2.78969526 -856.50354004 0 0 -4 
315 7 2 1.00000000 128.19999695 -43.92201614 2.84160542 -857.15898514 0 0 -4 
316 7 2 1.00000000 128.19999695 -47.24584198 1.00373816 -858.16168404 0 0 -4 
317 7 1 -1.00000000 129.10000610 -47.23668671 -2.46189666 -856.95245743 0 0 -4 
318 7 1 -1.00000000 129.10000610 -45.09426117 -4.71998119 -859.33934593 0 0 -4 
319 7 2 1.00000000 128.19999695 -42.90566254 -7.36562061 -857.30386543 0 0 -4 
320 7 1 -1.00000000 129.10000610 -45.62610626 -9.36285591 -855.40915489 0 0 -4 
321 7 1 -1.00000000 129.10000610 -46.35738373 -9.55497169 -851.75072289 0 0 -4 
322 7 1 -1.00000000 129.10000610 -44.76287842 -10.61682129 -848.47561836 0 0 -4 
323 7 2 1.00000000 128.19999695 -44.68462753 -8.13507748 -845.51093864 0 0 -4 
324 7 1 -1.00000000 129.10000610 -41.43750763 -9.28651905 -843.81210232 0 0 -4 
325 7 1 -1.00000000 129.10000610 -38.82894897 -7.73296976 -841.99546337 0 0 -4 
326 7 2 1.00000000 128.19999695 -40.45826340 -4.50356054 -840.44798183 0 0 -4 
327 7 2 1.00000000 128.19999695 -42.88934326 -3.13615966 -837.32742119 0 0 -4 
328 7 2 1.00000000 128.19999695 -45.91054916 -5.82476997 -837.78992367 0 0 -4 
329 7 2 1.00000000 128.19999695 -47.89223862 -8.51147175 -835.78976345 0 0 -4 
330 7 2 1.00000000 128.19999695 -50.13518906 -10.81614876 -833.94080114 0 0 -4 
331 7 1 -1.00000000 129.10000610 -51.61705780 -13.43105888 -836.56567383 0 0 -4 
332 7 1 -1.00000000 129.10000610 -52.16203690 -16.82270050 -837.31939697 0 0 -4 
333 7 1 -1.00000000 129.10000610 -55.46667099 -18.93714714 -837.48024654 0 0 -4 
334 7 2 1.00000000 128.19999695 -57.19114685 -21.00494003 -840.24661827 0 0 -4 
335 7 2 1.00000000 128.19999695 -56.03666687 -19.79191208 -843.61956787 0 0 -4 
336 7 2 1.00000000 128.19999695 -53.57151413 -17.01475906 -843.63918591 0 0 -4 
337 7 1 -1.00000000 129.10000610 -52.70120621 -14.26029301 -845.68998718 0 0 -4 
338 7 2 1.00000000 128.19999695 -54.93484879 -12.03808308 -847.82287216 0 0 -4 
339 7 1 -1.00000000 129.10000610 -55.57184982 -8.72141838 -849.83267212 0 0 -4 
340 7 1 -1.00000000 129.10000610 -55.87137985 -7.09545755 -853.12876320 0 0 -4 
341 7 1 -1.00000000 129.10000610 -53.72663116 -4.07514381 -854.03414154 0 0 -4 
342 7 2 1.00000000 128.19999695 -53.91601181 -2.08835483 -850.68471146 0 0 -4 
343 7 1 -1.00000000 129.10000610 -49.95018005 -2.40790629 -849.56637192 0 0 -4 
344 7 2 1.00000000 128.19999695 -46.22245026 -2.62617660 -850.56989479 0 0 -4 
345 7 2 1.00000000 128.19999695 -42.67764664 -3.73481512 -850.99380302 0 0 -4 
346 7 2 1.00000000 128.19999695 -39.61091995 -5.82452774 -851.47845078 0 0 -4 
347 7 1 -1.00000000 129.10000610 -36.95508575 -6.81914139 -848.72485733 0 0 -4 
348 7 2 1.00000000 128.19999695 -33.38381577 -6.64167929 -847.24461174 0 0 -4 
349 7 1 -1.00000000 129.10000610 -32.85107040 -2.96339822 -846.40440750 0 0 -4 
350 7 2 1.00000000 128.19999695 -31.69212723 -0.29693848 -848.86056328 0 0 -4 
351 8 2 1.00000000 128.19999695 40.59416199 -177.05989265 614.36110497 0 -1 3 
352 8 1 -1.00000000 129.10000610 43.57190704 -178.57000160 615.84271765 0 -1 3 
353 8 2 1.00000000 128.19999695 47.08381271 -177.72536469 616.70687008 0 -1 3 
354 8 2 1.00000000 128.19999695 49.15603256 -176.29842567 613.50428200 0 -1 3 
355 8 2 1.00000000 128.19999695 52.08593369 -174.04273987 614.62849188 0 -1 3 
356 8 1 -1.00000000 129.10000610 52.89771652 -171.60264969 617.65236807 0 -1 3 
357 8 2 1.00000000 128.19999695 52.43540192 -167.97834778 616.77110767 0 -1 3 
358 8 1 -1.00000000 129.10000610 53.91628647 -165.17105103 618.26797724 0 -1 3 
359 8 1 -1.00000000 129.10000610 56.21400452 -166.02672958 621.28218520 0 -1 3 
360 8 1 -1.00000000 129.10000610 53.62796783 -166.61423874 623.91261935 0 -1 3 
361 8 2 1.00000000 128.19999695 50.67471695 -168.77687836 623.74221563 0 -1 3 
362 8 1 -1.00000000 129.10000610 52.08146286 -172.49872589 625.01498079 0 -1 3 
363 8 1 -1.00000000 129.10000610 49.53610229 -175.21430588 623.26815820 0 -1 3 
364 8 1 -1.00000000 129.10000610 45.85503006 -175.15879440 622.37223241 0 -1 3 
365 8 2 1.00000000 128.19999695 44.77541351 -171.85734558 621.71237314 0 -1 3 
366 8 2 1.00000000 128.19999695 43.02983475 -172.30093765 618.29645896 0 -1 3 
367 8 1 -1.00000000 129.10000610 39.36838150 -171.83298111 619.05846786 0 -1 3 
368 8 1 -1.00000000 129.10000610 37.42605209 -170.31818390 622.02226949 0 -1 3 