ITEM: TIMESTEP
40100000 
ITEM: NUMBER OF ATOMS 
25000 
ITEM: BOX BOUNDS pp pp pp 
-103.678017 103.678017 
-103.678017 103.678017 
-103.678017 103.678017 
ITEM: ATOMS id mol type q mass xu yu zu ix iy iz 
1 1 2 1.00000000 128.19999695 375.98042297 35.83818817 -293.87993622 2 0 -1 
2 1 1 -1.00000000 129.10000610 374.14423752 37.51194763 -296.64604187 2 0 -1 
3 1 2 1.00000000 128.19999695 374.24581909 37.76731110 -300.57633209 2 0 -1 
4 1 2 1.00000000 128.19999695 372.22496414 38.36755371 -304.17735291 2 0 -1 
5 1 2 1.00000000 128.19999695 373.05109787 38.39383316 -307.59349060 2 0 -1 
6 1 1 -1.00000000 129.10000610 376.03585434 37.89853668 -309.99941254 2 0 -1 
7 1 2 1.00000000 128.19999695 378.53597260 40.46316528 -311.91731262 2 0 -2 
8 1 1 -1.00000000 129.10000610 377.99919891 40.72550201 -315.74697876 2 0 -2 
9 1 1 -1.00000000 129.10000610 375.97217560 37.99930191 -316.41986847 2 0 -2 
10 1 1 -1.00000000 129.10000610 372.15439987 37.55995941 -316.25072479 2 0 -2 
11 1 2 1.00000000 128.19999695 371.67848587 35.48309326 -319.20092010 2 0 -2 
12 1 1 -1.00000000 129.10000610 368.63496780 34.01156235 -320.85819244 2 0 -2 
13 1 1 -1.00000000 129.10000610 366.64299393 30.99958420 -320.10581207 2 0 -2 
14 1 1 -1.00000000 129.10000610 369.03990555 27.99297333 -319.90579987 2 0 -2 
15 1 2 1.00000000 128.19999695 372.02318192 27.33748055 -322.18868256 2 0 -2 
16 1 2 1.00000000 128.19999695 373.13129044 28.22402954 -325.57810211 2 0 -2 
17 1 1 -1.00000000 129.10000610 376.34887695 29.01945114 -327.60601044 2 0 -2 
18 1 1 -1.00000000 129.10000610 377.77806854 31.99298668 -325.84413910 2 0 -2 
19 1 2 1.00000000 128.19999695 375.70335388 35.32316208 -326.31259918 2 0 -2 
20 1 1 -1.00000000 129.10000610 372.14738083 35.48669434 -327.77416992 2 0 -2 
21 1 1 -1.00000000 129.10000610 368.54569244 35.82625198 -328.76989746 2 0 -2 
22 1 1 -1.00000000 129.10000610 368.02129745 34.63800812 -332.42836761 2 0 -2 
23 1 2 1.00000000 128.19999695 369.26774216 31.70552444 -334.40178680 2 0 -2 
24 1 1 -1.00000000 129.10000610 369.50300217 28.62184334 -331.78192139 2 0 -2 
25 1 1 -1.00000000 129.10000610 370.12808990 24.86249352 -332.21475983 2 0 -2 
26 1 2 1.00000000 128.19999695 372.91653824 22.01986122 -331.68641663 2 0 -2 
27 1 2 1.00000000 128.19999695 373.39796066 19.86211395 -334.76474762 2 0 -2 
28 1 2 1.00000000 128.19999695 375.02320099 18.49914360 -337.80241394 2 0 -2 
29 1 2 1.00000000 128.19999695 374.04674530 19.41250801 -341.41780090 2 0 -2 
30 1 2 1.00000000 128.19999695 376.42301941 19.47224998 -344.51423645 2 0 -2 
31 1 1 -1.00000000 129.10000610 378.69887924 18.50968552 -347.12060547 2 0 -2 
32 1 1 -1.00000000 129.10000610 378.67372513 15.03340054 -348.82862091 2 0 -2 
33 1 1 -1.00000000 129.10000610 379.41501999 14.43961906 -352.78848267 2 0 -2 
34 1 2 1.00000000 128.19999695 378.83103561 15.95336628 -356.18110657 2 0 -2 
35 1 2 1.00000000 128.19999695 380.77354431 13.86449814 -358.60091019 2 0 -2 
36 1 2 1.00000000 128.19999695 383.99638557 14.01140881 -360.82006454 2 0 -2 
37 1 1 -1.00000000 129.10000610 387.17423820 11.99092007 -360.37339401 2 0 -2 
38 1 2 1.00000000 128.19999695 389.34872818 10.95972347 -357.28480148 2 0 -2 
39 1 1 -1.00000000 129.10000610 392.00479698 12.64834213 -355.75143814 2 0 -2 
40 1 1 -1.00000000 129.10000610 395.41308975 14.59982014 -355.69873428 2 0 -2 
41 1 1 -1.00000000 129.10000610 398.46050453 16.73674965 -354.99647141 2 0 -2 
42 1 2 1.00000000 128.19999695 401.15344620 17.27233887 -357.88774109 2 0 -2 
43 1 1 -1.00000000 129.10000610 403.40085506 18.03703308 -360.62048340 2 0 -2 
44 1 2 1.00000000 128.19999695 406.61056042 19.66303253 -360.85298157 2 0 -2 
45 1 2 1.00000000 128.19999695 407.11839724 22.47994995 -363.41598511 2 0 -2 
46 1 2 1.00000000 128.19999695 409.28947687 23.37887764 -366.76198959 2 0 -2 
47 1 1 -1.00000000 129.10000610 413.00394046 23.72139740 -366.69670486 2 0 -2 
48 1 2 1.00000000 128.19999695 414.09277534 25.20539474 -363.43228149 2 0 -2 
49 1 1 -1.00000000 129.10000610 412.88941324 25.00821114 -359.73910904 2 0 -2 
50 1 2 1.00000000 128.19999695 410.78115010 22.44606018 -357.90219879 2 0 -2 
51 2 2 1.00000000 128.19999695 477.86979675 436.76548195 -215.03400373 2 2 -1 
52 2 1 -1.00000000 129.10000610 474.12442017 436.71814537 -215.22278309 2 2 -1 
53 2 2 1.00000000 128.19999695 472.45304108 436.62966919 -218.60178089 2 2 -1 
54 2 2 1.00000000 128.19999695 468.76408386 434.84309006 -218.73042011 2 2 -1 
55 2 2 1.00000000 128.19999695 466.83853149 432.56433868 -216.85180950 2 2 -1 
56 2 1 -1.00000000 129.10000610 463.37405014 431.44862938 -217.90977001 2 2 -1 
57 2 2 1.00000000 128.19999695 461.09695816 430.80326271 -214.84428453 2 2 -1 
58 2 1 -1.00000000 129.10000610 462.28532791 429.89665127 -211.20653343 2 2 -1 
59 2 1 -1.00000000 129.10000610 464.71097565 429.24833965 -208.51793826 2 2 -1 
60 2 1 -1.00000000 129.10000610 468.21662903 430.57850838 -207.33269003 2 2 -1 
61 2 2 1.00000000 128.19999695 470.37958527 431.54613686 -210.27278042 2 2 -1 
62 2 1 -1.00000000 129.10000610 473.61738205 431.38297462 -211.39413595 2 2 -1 
63 2 1 -1.00000000 129.10000610 476.63040161 433.05516243 -209.62889695 2 2 -1 
64 2 1 -1.00000000 129.10000610 479.42824554 435.49539375 -209.00493979 2 2 -1 
65 2 2 1.00000000 128.19999695 478.15816879 438.42411613 -207.30859092 2 2 -1 
66 2 2 1.00000000 128.19999695 475.65977478 441.02532578 -208.71804059 2 2 -1 
67 2 1 -1.00000000 129.10000610 477.95604324 443.06332207 -211.16980767 2 2 -1 
68 2 1 -1.00000000 129.10000610 479.66656494 444.53141403 -214.24799109 2 2 -1 
69 2 2 1.00000000 128.19999695 479.50515747 445.84471130 -217.93723869 2 2 -1 
70 2 1 -1.00000000 129.10000610 478.99335480 443.97413826 -221.32876110 2 2 -1 
71 2 1 -1.00000000 129.10000610 477.37448883 445.50754356 -224.65090561 2 2 -1 
72 2 1 -1.00000000 129.10000610 479.92675781 446.68442154 -227.21841240 2 2 -1 
73 2 2 1.00000000 128.19999695 482.99095154 444.77956963 -228.33381844 2 2 -1 
74 2 1 -1.00000000 129.10000610 486.19033051 442.86503601 -228.56308174 2 2 -1 
75 2 1 -1.00000000 129.10000610 487.94058990 441.20433807 -231.09905815 2 2 -1 
76 2 2 1.00000000 128.19999695 490.21627045 438.88642311 -229.72256088 2 2 -1 
77 2 2 1.00000000 128.19999695 490.22280884 436.44190216 -226.80455017 2 2 -1 
78 2 2 1.00000000 128.19999695 487.64137268 435.70919800 -224.39755058 2 2 -1 
79 2 2 1.00000000 128.19999695 485.08545685 433.85615158 -222.40380955 2 2 -1 
80 2 2 1.00000000 128.19999695 485.09192657 434.72883797 -218.65030193 2 2 -1 
81 2 1 -1.00000000 129.10000610 484.63947296 431.62972450 -216.31752205 2 2 -1 
82 2 1 -1.00000000 129.10000610 484.95925903 433.17379379 -212.78253698 2 2 -1 
83 2 1 -1.00000000 129.10000610 483.83295441 430.42913437 -210.51879406 2 2 -1 
84 2 2 1.00000000 128.19999695 482.09072876 427.31362152 -212.34061289 2 2 -1 
85 2 2 1.00000000 128.19999695 483.19097900 423.98862648 -210.92248964 2 2 -1 
86 2 2 1.00000000 128.19999695 485.72063446 421.46421242 -209.94825149 2 2 -1 
87 2 1 -1.00000000 129.10000610 487.37728119 419.70189190 -212.56842852 2 2 -1 
88 2 2 1.00000000 128.19999695 490.44744110 419.50115967 -214.46365070 2 2 -1 
89 2 1 -1.00000000 129.10000610 493.93473816 418.44454503 -215.93329811 2 2 -1 
90 2 1 -1.00000000 129.10000610 494.37035370 421.32857418 -218.12098598 2 2 -1 
91 2 1 -1.00000000 129.10000610 492.21971130 421.27351570 -221.14082813 2 2 -1 
92 2 2 1.00000000 128.19999695 493.00710297 418.32233047 -223.66102028 2 2 -1 
93 2 1 -1.00000000 129.10000610 494.78559113 415.08435127 -224.76093864 2 2 -1 
94 2 2 1.00000000 128.19999695 494.25687408 411.30558395 -225.84025002 2 2 -1 
95 2 2 1.00000000 128.19999695 492.96777344 408.37262011 -228.05550194 2 2 -1 
96 2 2 1.00000000 128.19999695 489.61206055 407.28870201 -229.62776756 2 2 -1 
97 2 1 -1.00000000 129.10000610 486.62571716 408.42689562 -228.07921219 2 2 -1 
98 2 2 1.00000000 128.19999695 484.74054718 406.34562492 -225.21149445 2 2 -1 
99 2 1 -1.00000000 129.10000610 487.52349854 403.75191498 -225.03575325 2 2 -1 
100 2 2 1.00000000 128.19999695 486.35287476 400.57070923 -227.07583046 2 2 -1 
101 3 2 1.00000000 128.19999695 346.61780548 -40.05548096 59.08844376 2 0 0 
102 3 1 -1.00000000 129.10000610 342.82077026 -39.04138947 58.90516281 2 0 0 
103 3 2 1.00000000 128.19999695 340.69045258 -37.23936844 61.19958496 2 0 0 
104 3 2 1.00000000 128.19999695 337.45109558 -37.61209488 59.58232117 2 0 0 
105 3 2 1.00000000 128.19999695 334.23237610 -36.43712616 61.15122604 2 0 0 
106 3 1 -1.00000000 129.10000610 335.05866241 -37.30744934 64.85259247 2 0 0 
107 3 2 1.00000000 128.19999695 336.42762756 -41.01796341 66.62597656 2 0 0 
108 3 1 -1.00000000 129.10000610 337.46463013 -44.53196716 67.33326721 2 0 0 
109 3 1 -1.00000000 129.10000610 338.99189758 -44.65165710 70.86009216 2 0 0 
110 3 1 -1.00000000 129.10000610 337.11676025 -42.15657806 72.92054749 2 0 0 
111 3 2 1.00000000 128.19999695 337.09674072 -44.16235733 76.23565674 2 0 0 
112 3 1 -1.00000000 129.10000610 340.00954437 -43.86275101 78.67060089 2 0 0 
113 3 1 -1.00000000 129.10000610 342.51258087 -45.90282440 80.83225250 2 0 0 
114 3 1 -1.00000000 129.10000610 346.10865021 -46.38173676 81.69005585 2 0 0 
115 3 2 1.00000000 128.19999695 348.32707977 -44.03133774 83.81277466 2 0 0 
116 3 2 1.00000000 128.19999695 348.07427979 -43.04911423 87.29222107 2 0 0 
117 3 1 -1.00000000 129.10000610 346.45944977 -41.38056183 90.31098175 2 0 0 
118 3 1 -1.00000000 129.10000610 343.87085724 -43.40641022 91.88450623 2 0 0 
119 3 2 1.00000000 128.19999695 342.29852295 -46.85129166 91.97223663 2 0 0 
120 3 1 -1.00000000 129.10000610 344.83707428 -48.70907211 89.81079865 2 0 0 
121 3 1 -1.00000000 129.10000610 347.87008667 -49.15515518 87.52443695 2 0 0 
122 3 1 -1.00000000 129.10000610 351.11065674 -50.57302094 86.55339813 2 0 0 
123 3 2 1.00000000 128.19999695 352.25171280 -53.61222458 84.36679077 2 0 0 
124 3 1 -1.00000000 129.10000610 352.48442841 -51.94442368 80.89169312 2 0 0 
125 3 1 -1.00000000 129.10000610 352.45279312 -51.24128723 77.13168335 2 0 0 
126 3 2 1.00000000 128.19999695 354.52582550 -48.44688797 75.38088226 2 0 0 
127 3 2 1.00000000 128.19999695 355.37402725 -45.70155716 72.52443695 2 0 0 
128 3 2 1.00000000 128.19999695 352.68945694 -46.12034225 69.85620117 2 0 0 
129 3 2 1.00000000 128.19999695 351.03666306 -44.99913788 66.78918457 2 0 0 
130 3 2 1.00000000 128.19999695 350.24034882 -43.47438431 63.18638611 2 0 0 
131 3 1 -1.00000000 129.10000610 351.00114059 -39.73279190 63.91631699 2 0 0 
132 3 1 -1.00000000 129.10000610 350.70399475 -39.02829361 67.72342682 2 0 0 
133 3 1 -1.00000000 129.10000610 350.02510834 -35.90127182 69.12003326 2 0 0 
134 3 2 1.00000000 128.19999695 348.32054138 -33.46001816 66.28223419 2 0 0 
135 3 2 1.00000000 128.19999695 349.94213867 -30.13205910 65.10047150 2 0 0 
136 3 2 1.00000000 128.19999695 348.49806976 -26.96201706 65.16745758 2 0 0 
137 3 1 -1.00000000 129.10000610 346.43399811 -24.52625465 67.08232117 2 0 0 
138 3 2 1.00000000 128.19999695 344.36748505 -21.77641869 66.18286896 2 0 0 
139 3 1 -1.00000000 129.10000610 342.63101959 -18.52022362 64.79700470 2 0 0 
140 3 1 -1.00000000 129.10000610 345.09902954 -15.83050251 65.79966736 2 0 0 
141 3 1 -1.00000000 129.10000610 346.22457886 -12.06360340 64.95735931 2 0 0 
142 3 2 1.00000000 128.19999695 345.45795441 -11.40049171 61.41383362 2 0 0 
143 3 1 -1.00000000 129.10000610 343.04277802 -12.55806541 58.77208710 2 0 0 
144 3 2 1.00000000 128.19999695 340.80113220 -14.03328609 55.76870728 2 0 0 
145 3 2 1.00000000 128.19999695 337.76683807 -15.04901695 57.61668396 2 0 0 
146 3 2 1.00000000 128.19999695 334.34445953 -14.31901073 58.73517227 2 0 0 
147 3 1 -1.00000000 129.10000610 331.81546783 -16.21089745 56.04164124 2 0 0 
148 3 2 1.00000000 128.19999695 330.24523163 -19.12750816 54.28990936 2 0 0 
149 3 1 -1.00000000 129.10000610 329.06163025 -21.45681000 57.23414612 2 0 0 
150 3 2 1.00000000 128.19999695 325.11028290 -21.90225410 57.20112991 2 0 0 
151 4 2 1.00000000 128.19999695 -317.20680237 297.32402802 27.12260437 -2 1 0 
152 4 1 -1.00000000 129.10000610 -316.53526306 293.77536011 27.15040779 -2 1 0 
153 4 2 1.00000000 128.19999695 -318.40200043 290.33101654 27.35274506 -2 1 0 
154 4 2 1.00000000 128.19999695 -318.80448151 286.50875092 26.52946281 -2 1 0 
155 4 2 1.00000000 128.19999695 -316.30139923 284.11862183 28.19985390 -2 1 0 
156 4 1 -1.00000000 129.10000610 -314.26309967 284.48291779 31.37661362 -2 1 0 
157 4 2 1.00000000 128.19999695 -314.62708282 286.75978851 34.63668442 -2 1 0 
158 4 1 -1.00000000 129.10000610 -311.25714111 287.71526337 34.96202469 -2 1 0 
159 4 1 -1.00000000 129.10000610 -309.19885254 286.84375000 31.83524895 -1 1 0 
160 4 1 -1.00000000 129.10000610 -306.10900116 285.52886963 30.21763611 -1 1 0 
161 4 2 1.00000000 128.19999695 -303.70664978 282.79010773 31.83671761 -1 1 0 
162 4 1 -1.00000000 129.10000610 -299.89815521 282.36611176 31.88309860 -1 1 0 
163 4 1 -1.00000000 129.10000610 -297.63160706 281.65650940 35.10260773 -1 1 0 
164 4 1 -1.00000000 129.10000610 -294.25220490 283.20172119 34.84528351 -1 1 0 
165 4 2 1.00000000 128.19999695 -291.54149628 285.82584381 35.14611435 -1 1 0 
166 4 2 1.00000000 128.19999695 -291.35086060 285.89498901 39.14849472 -1 1 0 
167 4 1 -1.00000000 129.10000610 -292.12987518 287.44503021 42.50793839 -1 1 0 
168 4 1 -1.00000000 129.10000610 -289.50138092 288.48767853 44.75723648 -1 1 0 
169 4 2 1.00000000 128.19999695 -286.04683685 289.21134186 44.34386063 -1 1 0 
170 4 1 -1.00000000 129.10000610 -283.83208466 286.58975983 45.94968033 -1 1 0 
171 4 1 -1.00000000 129.10000610 -280.27021027 287.97101593 46.20439911 -1 1 0 
172 4 1 -1.00000000 129.10000610 -277.03821564 289.31518555 47.63222885 -1 1 0 
173 4 2 1.00000000 128.19999695 -273.92675018 288.74960327 49.99832153 -1 1 0 
174 4 1 -1.00000000 129.10000610 -270.87142181 291.03332520 49.07552338 -1 1 0 
175 4 1 -1.00000000 129.10000610 -269.70585251 292.73633575 46.02556992 -1 1 0 
176 4 2 1.00000000 128.19999695 -267.19638824 290.59480286 43.99007797 -1 1 0 
177 4 2 1.00000000 128.19999695 -266.31570435 287.48004150 42.31528473 -1 1 0 
178 4 2 1.00000000 128.19999695 -264.40641785 284.09989929 42.18454742 -1 1 0 
179 4 2 1.00000000 128.19999695 -264.21490860 281.07846832 44.15461731 -1 1 0 
180 4 2 1.00000000 128.19999695 -264.11294174 277.42181396 44.84329987 -1 1 0 
181 4 1 -1.00000000 129.10000610 -263.20624542 273.93712616 45.90216827 -1 1 0 
182 4 1 -1.00000000 129.10000610 -263.72468567 272.29776764 49.36308670 -1 1 0 
183 4 1 -1.00000000 129.10000610 -262.51538086 273.60813141 52.41926193 -1 1 0 
184 4 2 1.00000000 128.19999695 -260.18214798 276.34138489 51.99062347 -1 1 0 
185 4 2 1.00000000 128.19999695 -256.60007095 277.04601288 53.29684448 -1 1 0 
186 4 2 1.00000000 128.19999695 -255.14196777 273.66934204 54.77678299 -1 1 0 
187 4 1 -1.00000000 129.10000610 -255.24455261 274.48873901 58.75939560 -1 1 0 
188 4 2 1.00000000 128.19999695 -256.79417801 272.56618500 61.93574905 -1 1 0 
189 4 1 -1.00000000 129.10000610 -256.22778702 272.38641357 65.83708191 -1 1 0 
190 4 1 -1.00000000 129.10000610 -254.89506912 268.45753479 65.63808441 -1 1 0 
191 4 1 -1.00000000 129.10000610 -252.08836365 266.05860138 63.93835831 -1 1 0 
192 4 2 1.00000000 128.19999695 -253.09933472 264.88955688 60.24198532 -1 1 0 
193 4 1 -1.00000000 129.10000610 -256.55385971 263.35521317 60.30891418 -1 1 0 
194 4 2 1.00000000 128.19999695 -258.25663757 262.32907867 63.50927734 -1 1 0 
195 4 2 1.00000000 128.19999695 -260.02788925 262.14421082 66.64006805 -1 1 0 
196 4 2 1.00000000 128.19999695 -258.72679138 260.29255295 69.81330872 -1 1 0 
197 4 1 -1.00000000 129.10000610 -255.64274979 258.44373322 67.80078125 -1 1 0 
198 4 2 1.00000000 128.19999695 -257.43102646 254.77883911 66.87685394 -1 1 0 
199 4 1 -1.00000000 129.10000610 -259.05997467 254.81105423 63.27811050 -1 1 0 
200 4 2 1.00000000 128.19999695 -258.62166214 251.23891830 61.92149734 -1 1 0 
201 5 2 1.00000000 128.19999695 -288.92456055 -81.44149780 -129.85704041 -1 0 -1 
202 5 1 -1.00000000 129.10000610 -287.44730377 -83.68709564 -132.88505554 -1 0 -1 
203 5 2 1.00000000 128.19999695 -286.55448151 -86.85551453 -130.98490143 -1 0 -1 
204 5 2 1.00000000 128.19999695 -289.57142639 -88.96025848 -129.74364471 -1 0 -1 
205 5 2 1.00000000 128.19999695 -291.17810059 -91.27652740 -131.77507019 -1 0 -1 
206 5 1 -1.00000000 129.10000610 -292.61416626 -93.97872162 -129.83772278 -1 0 -1 
207 5 2 1.00000000 128.19999695 -294.35258484 -94.05083466 -126.50194550 -1 0 -1 
208 5 1 -1.00000000 129.10000610 -294.46902466 -97.21075439 -124.09434509 -1 0 -1 
209 5 1 -1.00000000 129.10000610 -298.00463867 -97.92452240 -124.54560852 -1 0 -1 
210 5 1 -1.00000000 129.10000610 -301.61412048 -99.53691101 -124.03964233 -1 0 -1 
211 5 2 1.00000000 128.19999695 -304.12957764 -97.08823395 -125.90297699 -1 0 -1 
212 5 1 -1.00000000 129.10000610 -303.24967194 -97.11137390 -129.72252655 -1 0 -1 
213 5 1 -1.00000000 129.10000610 -304.93360138 -97.04504395 -132.80374146 -1 0 -1 
214 5 1 -1.00000000 129.10000610 -307.24002838 -93.97233582 -132.61029816 -1 0 -1 
215 5 2 1.00000000 128.19999695 -306.43260956 -90.56291962 -130.77880096 -1 0 -1 
216 5 2 1.00000000 128.19999695 -307.17782593 -87.18672180 -132.62364960 -1 0 -1 
217 5 1 -1.00000000 129.10000610 -307.15482330 -84.15283203 -130.63213348 -1 0 -1 
218 5 1 -1.00000000 129.10000610 -304.98281097 -82.17930603 -128.02954102 -1 0 -1 
219 5 2 1.00000000 128.19999695 -303.25946045 -80.18521881 -125.67343140 -1 0 -1 
220 5 1 -1.00000000 129.10000610 -304.30476379 -80.40127563 -122.11833954 -1 0 -1 
221 5 1 -1.00000000 129.10000610 -307.16548157 -79.39512634 -119.65473938 -1 0 -1 
222 5 1 -1.00000000 129.10000610 -309.56648254 -81.28215027 -117.46013641 -1 0 -1 
223 5 2 1.00000000 128.19999695 -307.87947083 -82.75542450 -113.64929199 -1 0 -1 
224 5 1 -1.00000000 129.10000610 -306.69796753 -82.70926666 -110.00489807 -1 0 -1 
225 5 1 -1.00000000 129.10000610 -308.55628204 -85.56671906 -108.26313019 -1 0 -1 
226 5 2 1.00000000 128.19999695 -308.80338287 -88.87585449 -110.12870026 -1 0 -1 
227 5 2 1.00000000 128.19999695 -308.45095062 -92.06430817 -107.57432556 -1 0 -1 
228 5 2 1.00000000 128.19999695 -311.68287659 -93.76741791 -108.18835449 -2 0 -1 
229 5 2 1.00000000 128.19999695 -315.04752350 -95.61734772 -108.25273132 -2 0 -1 
230 5 2 1.00000000 128.19999695 -317.62812805 -93.41014862 -109.82392120 -2 0 -1 
231 5 1 -1.00000000 129.10000610 -320.21221924 -91.22499847 -111.74855804 -2 0 -1 
232 5 1 -1.00000000 129.10000610 -323.48929596 -93.06938934 -111.66083527 -2 0 -1 
233 5 1 -1.00000000 129.10000610 -324.64041138 -95.40395355 -114.82878113 -2 0 -1 
234 5 2 1.00000000 128.19999695 -326.52532959 -98.48477173 -112.97701263 -2 0 -1 
235 5 2 1.00000000 128.19999695 -326.96894073 -102.07472229 -114.28632355 -2 0 -1 
236 5 2 1.00000000 128.19999695 -326.36726379 -105.37291718 -113.88491821 -2 -1 -1 
237 5 1 -1.00000000 129.10000610 -325.03892517 -108.75817108 -112.94519806 -2 -1 -1 
238 5 2 1.00000000 128.19999695 -325.01224518 -112.32180023 -114.47238922 -2 -1 -1 
239 5 1 -1.00000000 129.10000610 -325.60185242 -110.90672302 -118.24013519 -2 -1 -1 
240 5 1 -1.00000000 129.10000610 -322.94644928 -112.29029083 -120.32796478 -2 -1 -1 
241 5 1 -1.00000000 129.10000610 -319.52647400 -112.66370392 -118.47465515 -2 -1 -1 
242 5 2 1.00000000 128.19999695 -315.83370209 -112.11860657 -118.41633606 -2 -1 -1 
243 5 1 -1.00000000 129.10000610 -312.87898254 -110.13978577 -117.59602356 -2 -1 -1 
244 5 2 1.00000000 128.19999695 -309.35736847 -111.86871338 -116.78978729 -1 -1 -1 
245 5 2 1.00000000 128.19999695 -309.69311523 -115.64945984 -115.88562775 -1 -1 -1 
246 5 2 1.00000000 128.19999695 -310.62290955 -117.47756195 -119.00821686 -1 -1 -1 
247 5 1 -1.00000000 129.10000610 -311.43337250 -118.89270782 -122.56829834 -2 -1 -1 
248 5 2 1.00000000 128.19999695 -312.30630493 -117.78126526 -125.89987946 -2 -1 -1 
249 5 1 -1.00000000 129.10000610 -311.78561401 -114.49418640 -128.08444977 -2 -1 -1 
250 5 2 1.00000000 128.19999695 -310.41996765 -112.25418091 -130.82021332 -1 -1 -1 
251 6 2 1.00000000 128.19999695 361.95977783 -347.26069641 -35.13238525 2 -2 0 
252 6 1 -1.00000000 129.10000610 362.11247253 -345.48389435 -31.56910706 2 -2 0 
253 6 2 1.00000000 128.19999695 361.01488876 -342.43750000 -29.33032799 2 -2 0 
254 6 2 1.00000000 128.19999695 359.53193283 -339.40060425 -31.29764938 2 -2 0 
255 6 2 1.00000000 128.19999695 361.98242950 -337.66990662 -33.31102371 2 -2 0 
256 6 1 -1.00000000 129.10000610 362.24640274 -334.81145477 -36.08525467 2 -2 0 
257 6 2 1.00000000 128.19999695 363.15272522 -334.35965729 -39.84771347 2 -2 0 
258 6 1 -1.00000000 129.10000610 361.56484604 -333.95076752 -43.49327087 2 -2 0 
259 6 1 -1.00000000 129.10000610 361.79345322 -336.93501282 -45.43978119 2 -2 0 
260 6 1 -1.00000000 129.10000610 359.94422150 -340.22529602 -45.15205765 2 -2 0 
261 6 2 1.00000000 128.19999695 359.82592392 -341.97008514 -41.46779251 2 -2 0 
262 6 1 -1.00000000 129.10000610 356.35300827 -342.37257385 -39.63582611 2 -2 0 
263 6 1 -1.00000000 129.10000610 356.68777084 -343.26324463 -35.89083862 2 -2 0 
264 6 1 -1.00000000 129.10000610 354.78333664 -345.59617615 -33.51189423 2 -2 0 
265 6 2 1.00000000 128.19999695 353.75759506 -349.33377838 -33.02327347 2 -2 0 
266 6 2 1.00000000 128.19999695 350.17736816 -349.08424377 -34.25704575 2 -2 0 
267 6 1 -1.00000000 129.10000610 348.05146790 -351.32900620 -32.81435776 2 -2 0 
268 6 1 -1.00000000 129.10000610 347.55939484 -353.53586197 -29.34550667 2 -2 0 
269 6 2 1.00000000 128.19999695 347.44489288 -357.13464737 -29.02657127 2 -2 0 
270 6 1 -1.00000000 129.10000610 348.34136963 -360.96293640 -29.31477928 2 -2 0 
271 6 1 -1.00000000 129.10000610 352.04216003 -361.23225021 -30.56329346 2 -2 0 
272 6 1 -1.00000000 129.10000610 354.23530579 -358.27055740 -30.03578377 2 -2 0 
273 6 2 1.00000000 128.19999695 357.63677979 -357.41698456 -32.25066376 2 -2 0 
274 6 1 -1.00000000 129.10000610 358.62746811 -354.26175308 -34.16880417 2 -2 0 
275 6 1 -1.00000000 129.10000610 357.00130081 -353.67485809 -37.50252533 2 -2 0 
276 6 2 1.00000000 128.19999695 354.30165863 -356.45526505 -38.82984543 2 -2 0 
277 6 2 1.00000000 128.19999695 350.53811646 -355.31152725 -38.49424744 2 -2 0 
278 6 2 1.00000000 128.19999695 348.03488159 -355.71945190 -40.96271896 2 -2 0 
279 6 2 1.00000000 128.19999695 346.00482178 -357.79776764 -43.51939774 2 -2 0 
280 6 2 1.00000000 128.19999695 342.93390656 -358.92606354 -45.35421753 2 -2 0 
281 6 1 -1.00000000 129.10000610 340.96764374 -357.57775879 -48.20028687 2 -2 0 
282 6 1 -1.00000000 129.10000610 341.95563507 -353.80633163 -48.37238312 2 -2 0 
283 6 1 -1.00000000 129.10000610 339.76021576 -351.21891403 -50.04267120 2 -2 0 
284 6 2 1.00000000 128.19999695 337.44535065 -351.46807480 -52.90518951 2 -2 0 
285 6 2 1.00000000 128.19999695 334.42332458 -349.86965942 -54.55011749 2 -2 0 
286 6 2 1.00000000 128.19999695 333.58267212 -351.15285873 -58.21680450 2 -2 0 
287 6 1 -1.00000000 129.10000610 333.81402588 -349.60694122 -61.77413940 2 -2 0 
288 6 2 1.00000000 128.19999695 332.14475250 -349.95690918 -64.97216034 2 -2 0 
289 6 1 -1.00000000 129.10000610 330.93943787 -348.12964630 -67.98584747 2 -2 0 
290 6 1 -1.00000000 129.10000610 328.10056305 -350.07791901 -70.46469116 2 -2 0 
291 6 1 -1.00000000 129.10000610 325.13213348 -348.76578522 -72.72528076 2 -2 0 
292 6 2 1.00000000 128.19999695 324.67083740 -345.07710266 -73.09672546 2 -2 0 
293 6 1 -1.00000000 129.10000610 326.71773529 -342.05456543 -72.12062073 2 -2 0 
294 6 2 1.00000000 128.19999695 329.70391083 -339.83744049 -71.83023834 2 -2 0 
295 6 2 1.00000000 128.19999695 332.86205292 -341.04397583 -73.64270782 2 -2 0 
296 6 2 1.00000000 128.19999695 335.02042389 -343.11352539 -75.88399506 2 -2 0 
297 6 1 -1.00000000 129.10000610 333.85324097 -345.00841522 -78.88272858 2 -2 0 
298 6 2 1.00000000 128.19999695 332.28257751 -347.42198181 -80.81931305 2 -2 0 
299 6 1 -1.00000000 129.10000610 335.00273132 -349.53128052 -82.37248230 2 -2 0 
300 6 2 1.00000000 128.19999695 337.02319336 -352.05651855 -80.02710724 2 -2 0 
301 7 2 1.00000000 128.19999695 -110.41023254 -55.37318802 -904.92647552 -1 0 -4 
302 7 1 -1.00000000 129.10000610 -111.62370300 -53.91468811 -908.33967590 -1 0 -4 
303 7 2 1.00000000 128.19999695 -113.91571808 -52.69021225 -911.11672974 -1 0 -4 
304 7 2 1.00000000 128.19999695 -117.44596100 -50.93048859 -910.51853943 -1 0 -4 
305 7 2 1.00000000 128.19999695 -120.30438995 -48.42365646 -909.92834473 -1 0 -4 
306 7 1 -1.00000000 129.10000610 -124.04664612 -46.86328888 -909.45687866 -1 0 -4 
307 7 2 1.00000000 128.19999695 -125.92076874 -44.06803894 -911.64362335 -1 0 -4 
308 7 1 -1.00000000 129.10000610 -127.78132629 -42.35626221 -914.69447327 -1 0 -4 
309 7 1 -1.00000000 129.10000610 -128.47536469 -45.24566269 -917.29505157 -1 0 -4 
310 7 1 -1.00000000 129.10000610 -130.13763428 -48.54661179 -917.94184875 -1 0 -4 
311 7 2 1.00000000 128.19999695 -132.08923340 -49.85271454 -915.17720032 -1 0 -4 
312 7 1 -1.00000000 129.10000610 -132.30619049 -52.74966812 -912.73097992 -1 0 -4 
313 7 1 -1.00000000 129.10000610 -128.70204163 -53.78958511 -911.80211639 -1 0 -4 
314 7 1 -1.00000000 129.10000610 -125.54267120 -55.69466019 -912.83232117 -1 0 -4 
315 7 2 1.00000000 128.19999695 -122.76448059 -58.32471085 -912.16094208 -1 0 -4 
316 7 2 1.00000000 128.19999695 -122.07801056 -61.89982986 -911.76439667 -1 0 -4 
317 7 1 -1.00000000 129.10000610 -122.40818024 -62.63009262 -907.84949493 -1 0 -4 
318 7 1 -1.00000000 129.10000610 -119.31774902 -64.56148529 -907.06559753 -1 0 -4 
319 7 2 1.00000000 128.19999695 -118.08089447 -68.04574585 -907.15173340 -1 0 -4 
320 7 1 -1.00000000 129.10000610 -116.94792175 -71.29802704 -908.66189575 -1 0 -4 
321 7 1 -1.00000000 129.10000610 -118.64184570 -74.92551422 -907.60814667 -1 0 -4 
322 7 1 -1.00000000 129.10000610 -118.68632507 -76.49771118 -911.36568451 -1 0 -4 
323 7 2 1.00000000 128.19999695 -121.54156494 -79.01285553 -910.66036987 -1 0 -4 
324 7 1 -1.00000000 129.10000610 -121.34415436 -82.52989960 -911.92207336 -1 0 -4 
325 7 1 -1.00000000 129.10000610 -123.10110474 -85.47113800 -910.95152283 -1 0 -4 
326 7 2 1.00000000 128.19999695 -121.42757416 -88.73014832 -910.29448700 -1 0 -4 
327 7 2 1.00000000 128.19999695 -122.09606171 -90.59058380 -913.76097870 -1 0 -4 
328 7 2 1.00000000 128.19999695 -120.76721954 -92.82854462 -916.71705627 -1 0 -4 
329 7 2 1.00000000 128.19999695 -121.22474670 -93.62629700 -920.27761078 -1 0 -4 
330 7 2 1.00000000 128.19999695 -122.95395660 -96.41909027 -922.44633484 -1 0 -4 
331 7 1 -1.00000000 129.10000610 -124.58023071 -99.99343872 -922.63757324 -1 0 -4 
332 7 1 -1.00000000 129.10000610 -127.82716370 -101.45321655 -921.54017639 -1 0 -4 
333 7 1 -1.00000000 129.10000610 -131.68292236 -100.77622986 -922.43258667 -1 0 -4 
334 7 2 1.00000000 128.19999695 -132.21505737 -97.27593231 -921.46630859 -1 0 -4 
335 7 2 1.00000000 128.19999695 -136.09544373 -97.20655060 -920.44869995 -1 0 -4 
336 7 2 1.00000000 128.19999695 -139.41504669 -96.98032379 -921.37811279 -1 0 -4 
337 7 1 -1.00000000 129.10000610 -142.93389130 -96.91130066 -923.41525269 -1 0 -4 
338 7 2 1.00000000 128.19999695 -144.82691193 -94.40013123 -925.72170258 -1 0 -4 
339 7 1 -1.00000000 129.10000610 -147.82748413 -93.02713013 -924.09089661 -1 0 -4 
340 7 1 -1.00000000 129.10000610 -148.30306244 -92.82612610 -920.36536407 -1 0 -4 
341 7 1 -1.00000000 129.10000610 -147.18514252 -91.97532654 -916.77210999 -1 0 -4 
342 7 2 1.00000000 128.19999695 -143.38868332 -91.92486572 -916.96891022 -1 0 -4 
343 7 1 -1.00000000 129.10000610 -140.83176422 -90.13387299 -915.08680725 -1 0 -4 
344 7 2 1.00000000 128.19999695 -136.67670441 -89.84209442 -914.88307190 -1 0 -4 
345 7 2 1.00000000 128.19999695 -132.83234406 -90.75360870 -915.19722748 -1 0 -4 
346 7 2 1.00000000 128.19999695 -129.75437164 -89.67449188 -913.01919556 -1 0 -4 
347 7 1 -1.00000000 129.10000610 -129.92983246 -91.87183380 -909.76155090 -1 0 -4 
348 7 2 1.00000000 128.19999695 -127.30813599 -93.35856628 -907.48807526 -1 0 -4 
349 7 1 -1.00000000 129.10000610 -126.39263916 -92.00033569 -904.19522095 -1 0 -4 
350 7 2 1.00000000 128.19999695 -125.07862854 -93.21503448 -901.18459320 -1 0 -4 
351 8 2 1.00000000 128.19999695 5.52283335 -123.75128174 528.75549316 0 -1 3 
352 8 1 -1.00000000 129.10000610 6.51770926 -121.03345490 526.36424255 0 -1 3 
353 8 2 1.00000000 128.19999695 8.94866753 -118.07603455 524.88469696 0 -1 3 
354 8 2 1.00000000 128.19999695 6.60906124 -115.31914520 525.78374481 0 -1 3 
355 8 2 1.00000000 128.19999695 3.92394924 -114.30747986 528.32350922 0 -1 3 
356 8 1 -1.00000000 129.10000610 0.45067984 -112.51310730 527.33656311 0 -1 3 
357 8 2 1.00000000 128.19999695 0.08154955 -108.55124664 528.09822845 0 -1 3 
358 8 1 -1.00000000 129.10000610 2.03924751 -105.43927002 527.04620361 0 -1 3 
359 8 1 -1.00000000 129.10000610 5.57640123 -105.56796265 529.08781433 0 -1 3 
360 8 1 -1.00000000 129.10000610 9.11407375 -106.88193512 529.00663757 0 -1 3 
361 8 2 1.00000000 128.19999695 10.59559631 -106.62760162 532.40838623 0 -1 3 
362 8 1 -1.00000000 129.10000610 10.04006958 -106.23690796 536.22242737 0 -1 3 
363 8 1 -1.00000000 129.10000610 7.65566492 -108.12181854 538.46402740 0 -1 3 
364 8 1 -1.00000000 129.10000610 7.91475677 -110.01534271 542.05136108 0 -1 3 
365 8 2 1.00000000 128.19999695 8.46124363 -110.28752136 545.84096527 0 -1 3 
366 8 2 1.00000000 128.19999695 6.50515604 -112.58412170 548.49508667 0 -1 3 
367 8 1 -1.00000000 129.10000610 4.41081333 -113.81196594 551.73661041 0 -1 3 
368 8 1 -1.00000000 129.10000610 6.96693850 -116.44017792 553.14300537 0 -1 3 
369 8 2 1.00000000 128.19999695 7.32289743 -118.94638062 550.39995575 0 -1 3 
370 8 1 -1.00000000 129.10000610 4.08676243 -120.01165771 548.25534058 0 -1 3 
371 8 1 -1.00000000 129.10000610 1.01648974 -122.24941254 547.86557007 0 -1 3 
372 8 1 -1.00000000 129.10000610 2.51070428 -125.43470764 548.16950226 0 -1 3 