ITEM: TIMESTEP
43650000 
ITEM: NUMBER OF ATOMS 
25000 
ITEM: BOX BOUNDS pp pp pp 
-103.678017 103.678017 
-103.678017 103.678017 
-103.678017 103.678017 
ITEM: ATOMS id mol type q mass xu yu zu ix iy iz 
1 1 2 1.00000000 128.19999695 496.62548828 -204.74262142 -325.35486603 2 -1 -2 
2 1 1 -1.00000000 129.10000610 493.09006500 -204.72354102 -326.48558807 2 -1 -2 
3 1 2 1.00000000 128.19999695 490.92488861 -201.64131212 -326.22998047 2 -1 -2 
4 1 2 1.00000000 128.19999695 487.31032562 -201.27942705 -326.95951080 2 -1 -2 
5 1 2 1.00000000 128.19999695 483.79201508 -199.60170174 -326.45130157 2 -1 -2 
6 1 1 -1.00000000 129.10000610 481.23758698 -202.19151449 -328.04098511 2 -1 -2 
7 1 2 1.00000000 128.19999695 482.72570038 -204.26206064 -330.75160217 2 -1 -2 
8 1 1 -1.00000000 129.10000610 485.27018738 -207.27221865 -331.49164581 2 -1 -2 
9 1 1 -1.00000000 129.10000610 483.51463318 -210.48461318 -330.05935669 2 -1 -2 
10 1 1 -1.00000000 129.10000610 485.31118774 -213.19544029 -327.94348907 2 -1 -2 
11 1 2 1.00000000 128.19999695 487.80992889 -215.00287914 -325.99442291 2 -1 -2 
12 1 1 -1.00000000 129.10000610 488.60349274 -215.67809772 -322.39381409 2 -1 -2 
13 1 1 -1.00000000 129.10000610 489.71553802 -218.49285698 -320.45121002 2 -1 -2 
14 1 1 -1.00000000 129.10000610 490.86566162 -220.02810669 -317.21163940 2 -1 -2 
15 1 2 1.00000000 128.19999695 492.76576233 -219.88267612 -314.11672974 2 -1 -2 
16 1 2 1.00000000 128.19999695 496.26371002 -219.73613167 -312.76796722 2 -1 -2 
17 1 1 -1.00000000 129.10000610 495.98256683 -219.13787174 -308.87171173 2 -1 -1 
18 1 1 -1.00000000 129.10000610 494.74435425 -215.75237274 -307.49419403 2 -1 -1 
19 1 2 1.00000000 128.19999695 492.62749481 -213.17543459 -305.47658539 2 -1 -1 
20 1 1 -1.00000000 129.10000610 494.33035278 -209.77640748 -303.74759674 2 -1 -1 
21 1 1 -1.00000000 129.10000610 494.15325165 -207.22743940 -306.74536133 2 -1 -1 
22 1 1 -1.00000000 129.10000610 492.85386658 -203.70586395 -306.69730377 2 -1 -1 
23 1 2 1.00000000 128.19999695 493.55159760 -200.67490578 -308.73331451 2 -1 -1 
24 1 1 -1.00000000 129.10000610 490.47969055 -200.11380529 -311.23268127 2 -1 -2 
25 1 1 -1.00000000 129.10000610 491.73935699 -200.64354992 -314.97993469 2 -1 -2 
26 1 2 1.00000000 128.19999695 495.15348053 -200.85227060 -316.53364563 2 -1 -2 
27 1 2 1.00000000 128.19999695 496.95523071 -200.90486193 -320.32850647 2 -1 -2 
28 1 2 1.00000000 128.19999695 500.58814240 -199.63436508 -320.24394226 2 -1 -2 
29 1 2 1.00000000 128.19999695 503.18418121 -196.95822525 -318.63712311 2 -1 -2 
30 1 2 1.00000000 128.19999695 505.31811523 -198.00494099 -315.28676605 2 -1 -2 
31 1 1 -1.00000000 129.10000610 508.00202942 -196.93476582 -313.44351959 2 -1 -2 
32 1 1 -1.00000000 129.10000610 508.55889130 -193.14970303 -313.47646332 2 -1 -2 
33 1 1 -1.00000000 129.10000610 509.73054504 -191.92643642 -310.15581512 2 -1 -1 
34 1 2 1.00000000 128.19999695 508.89329529 -190.03642082 -306.97209930 2 -1 -1 
35 1 2 1.00000000 128.19999695 507.28128815 -187.09417725 -306.11665344 2 -1 -1 
36 1 2 1.00000000 128.19999695 505.45008850 -184.03422165 -305.95375824 2 -1 -1 
37 1 1 -1.00000000 129.10000610 501.70211792 -184.35218239 -306.16880798 2 -1 -1 
38 1 2 1.00000000 128.19999695 499.68858337 -181.07530594 -306.63834381 2 -1 -1 
39 1 1 -1.00000000 129.10000610 498.36573792 -179.87356567 -310.03421783 2 -1 -1 
40 1 1 -1.00000000 129.10000610 499.91351318 -176.37049866 -310.86868286 2 -1 -1 
41 1 1 -1.00000000 129.10000610 501.61308289 -174.54505539 -307.74993134 2 -1 -1 
42 1 2 1.00000000 128.19999695 500.76337433 -171.29172134 -305.81009674 2 -1 -1 
43 1 1 -1.00000000 129.10000610 503.18168640 -168.81270218 -304.55217743 2 -1 -1 
44 1 2 1.00000000 128.19999695 506.87874603 -169.72260284 -303.63428497 2 -1 -1 
45 1 2 1.00000000 128.19999695 507.58899689 -167.62163544 -300.56714630 2 -1 -1 
46 1 2 1.00000000 128.19999695 508.65026855 -168.46091080 -297.07009125 2 -1 -1 
47 1 1 -1.00000000 129.10000610 511.92127991 -169.85735321 -296.02548981 2 -1 -1 
48 1 2 1.00000000 128.19999695 514.55509949 -172.85937119 -294.95589447 2 -1 -1 
49 1 1 -1.00000000 129.10000610 517.35843658 -173.90584946 -292.40763092 2 -1 -1 
50 1 2 1.00000000 128.19999695 519.67575836 -176.25173950 -290.97097778 3 -1 -1 
51 2 2 1.00000000 128.19999695 558.13373947 355.30375671 -306.09174347 3 2 -1 
52 2 1 -1.00000000 129.10000610 559.44362640 353.33359146 -303.34531403 3 2 -1 
53 2 2 1.00000000 128.19999695 563.05946732 352.34395599 -303.39377594 3 2 -1 
54 2 2 1.00000000 128.19999695 564.75460052 354.05482101 -300.42092896 3 2 -1 
55 2 2 1.00000000 128.19999695 565.00320816 357.78792191 -299.77777100 3 2 -1 
56 2 1 -1.00000000 129.10000610 564.30539703 360.15083313 -302.94349670 3 2 -1 
57 2 2 1.00000000 128.19999695 561.28409576 362.45295715 -303.76273346 3 2 -1 
58 2 1 -1.00000000 129.10000610 557.73839569 363.47399139 -303.76842499 3 2 -1 
59 2 1 -1.00000000 129.10000610 554.09405518 364.42107773 -304.18248749 3 2 -1 
60 2 1 -1.00000000 129.10000610 553.08363342 367.95813751 -302.66936493 3 2 -1 
61 2 2 1.00000000 128.19999695 549.13050842 368.64654922 -303.46115112 3 2 -1 
62 2 1 -1.00000000 129.10000610 546.17540741 367.85008240 -305.16464233 3 2 -1 
63 2 1 -1.00000000 129.10000610 543.28934479 369.53996277 -306.89138031 3 2 -1 
64 2 1 -1.00000000 129.10000610 539.85974884 368.51360703 -307.79348755 3 2 -1 
65 2 2 1.00000000 128.19999695 537.82730865 371.38090897 -306.14801025 3 2 -1 
66 2 2 1.00000000 128.19999695 537.39105225 375.06483459 -305.25076294 3 2 -1 
67 2 1 -1.00000000 129.10000610 539.72029877 376.92233276 -302.76503754 3 2 -1 
68 2 1 -1.00000000 129.10000610 542.89492798 374.53530502 -302.49502563 3 2 -1 
69 2 2 1.00000000 128.19999695 546.53579712 374.30662918 -301.68646240 3 2 -1 
70 2 1 -1.00000000 129.10000610 548.82383728 373.24294662 -298.92464447 3 2 -1 
71 2 1 -1.00000000 129.10000610 549.01964569 372.16026306 -295.38029480 3 2 -1 
72 2 1 -1.00000000 129.10000610 546.82180023 375.03738022 -293.70658875 3 2 -1 
73 2 2 1.00000000 128.19999695 544.65839386 377.13606262 -295.90121460 3 2 -1 
74 2 1 -1.00000000 129.10000610 543.76686096 380.62391663 -294.70961761 3 2 -1 
75 2 1 -1.00000000 129.10000610 541.21224976 383.07047272 -295.56990051 3 2 -1 
76 2 2 1.00000000 128.19999695 538.13824463 383.38779831 -297.87461853 3 2 -1 
77 2 2 1.00000000 128.19999695 534.69484711 384.77240944 -296.40803528 3 2 -1 
78 2 2 1.00000000 128.19999695 535.01131439 388.09293365 -295.18652344 3 2 -1 
79 2 2 1.00000000 128.19999695 538.65850067 389.27928352 -294.00386810 3 2 -1 
80 2 2 1.00000000 128.19999695 541.64898682 389.11654282 -296.73042297 3 2 -1 
81 2 1 -1.00000000 129.10000610 542.28238678 392.96587372 -297.14347839 3 2 -1 
82 2 1 -1.00000000 129.10000610 540.44587708 396.35503960 -298.07434845 3 2 -1 
83 2 1 -1.00000000 129.10000610 536.26693726 396.85317802 -298.22337341 3 2 -1 
84 2 2 1.00000000 128.19999695 533.73196411 394.21698761 -298.23114014 3 2 -1 
85 2 2 1.00000000 128.19999695 530.28476715 392.58689308 -298.68646240 3 2 -1 
86 2 2 1.00000000 128.19999695 526.48785400 393.69233131 -299.33862305 3 2 -1 
87 2 1 -1.00000000 129.10000610 524.38151550 391.37556076 -301.68955231 3 2 -1 
88 2 2 1.00000000 128.19999695 521.95128632 389.27290916 -303.72434235 3 2 -1 
89 2 1 -1.00000000 129.10000610 524.06021881 388.27313042 -307.02606964 3 2 -1 
90 2 1 -1.00000000 129.10000610 525.01342010 390.14958000 -310.25027466 3 2 -1 
91 2 1 -1.00000000 129.10000610 523.90070343 393.19868660 -312.05934143 3 2 -2 
92 2 2 1.00000000 128.19999695 520.91189575 395.62684250 -311.53332520 3 2 -2 
93 2 1 -1.00000000 129.10000610 519.30333710 398.11436462 -308.91177368 3 2 -1 
94 2 2 1.00000000 128.19999695 516.31947327 398.82120037 -306.38256836 2 2 -1 
95 2 2 1.00000000 128.19999695 514.59677887 397.79410744 -303.07807922 2 2 -1 
96 2 2 1.00000000 128.19999695 515.83052826 395.14662743 -300.53028107 2 2 -1 
97 2 1 -1.00000000 129.10000610 519.01095581 394.79641533 -298.79466248 3 2 -1 
98 2 2 1.00000000 128.19999695 519.17101288 392.94475555 -295.64243317 3 2 -1 
99 2 1 -1.00000000 129.10000610 521.86399078 392.29301834 -293.00853729 3 2 -1 
100 2 2 1.00000000 128.19999695 521.89080048 393.20433998 -289.29623413 3 2 -1 
101 3 2 1.00000000 128.19999695 375.45932770 -114.77973938 32.99368286 2 -1 0 
102 3 1 -1.00000000 129.10000610 374.87110138 -111.74003601 34.99393845 2 -1 0 
103 3 2 1.00000000 128.19999695 374.46248245 -109.52983093 38.19261551 2 -1 0 
104 3 2 1.00000000 128.19999695 371.88097000 -107.12383270 39.74189377 2 -1 0 
105 3 2 1.00000000 128.19999695 367.93482208 -106.17954254 39.35091019 2 -1 0 
106 3 1 -1.00000000 129.10000610 364.53602600 -108.37355804 39.08603287 2 -1 0 
107 3 2 1.00000000 128.19999695 361.37214279 -110.70232391 39.18325424 2 -1 0 
108 3 1 -1.00000000 129.10000610 360.47899628 -113.81700134 41.47620773 2 -1 0 
109 3 1 -1.00000000 129.10000610 358.90618896 -111.62701416 44.50159454 2 -1 0 
110 3 1 -1.00000000 129.10000610 355.88648605 -113.46566772 46.35792160 2 -1 0 
111 3 2 1.00000000 128.19999695 352.06480408 -112.65820312 45.29123306 2 -1 0 
112 3 1 -1.00000000 129.10000610 348.21971893 -113.26865387 45.42193222 2 -1 0 
113 3 1 -1.00000000 129.10000610 347.47966003 -116.90908813 46.35814285 2 -1 0 
114 3 1 -1.00000000 129.10000610 345.69974518 -119.05769348 48.94865799 2 -1 0 
115 3 2 1.00000000 128.19999695 346.95320129 -117.66074371 52.51224899 2 -1 0 
116 3 2 1.00000000 128.19999695 345.27691650 -118.48642731 55.92314529 2 -1 0 
117 3 1 -1.00000000 129.10000610 342.77674866 -121.08901978 56.16989517 2 -1 0 
118 3 1 -1.00000000 129.10000610 339.58359528 -119.95867920 57.60479355 2 -1 0 
119 3 2 1.00000000 128.19999695 338.34053040 -123.34946442 59.46136093 2 -1 0 
120 3 1 -1.00000000 129.10000610 339.77880096 -122.61125183 63.21844864 2 -1 0 
121 3 1 -1.00000000 129.10000610 341.10794830 -119.66351318 64.53539276 2 -1 0 
122 3 1 -1.00000000 129.10000610 339.49444580 -117.18883514 62.51014709 2 -1 0 
123 3 2 1.00000000 128.19999695 339.74030304 -113.67978668 60.61957169 2 -1 0 
124 3 1 -1.00000000 129.10000610 342.23800659 -113.55233002 57.80036163 2 -1 0 
125 3 1 -1.00000000 129.10000610 339.92096710 -114.51788330 54.79055023 2 -1 0 
126 3 2 1.00000000 128.19999695 340.68784332 -115.89680481 51.25158310 2 -1 0 
127 3 2 1.00000000 128.19999695 337.77224731 -115.70693207 48.75210190 2 -1 0 
128 3 2 1.00000000 128.19999695 339.75496674 -117.88852692 45.67323685 2 -1 0 
129 3 2 1.00000000 128.19999695 340.88387299 -120.44937897 42.86763000 2 -1 0 
130 3 2 1.00000000 128.19999695 344.33100128 -120.33786011 42.11845398 2 -1 0 
131 3 1 -1.00000000 129.10000610 347.41078949 -118.80961609 40.36731339 2 -1 0 
132 3 1 -1.00000000 129.10000610 349.51306915 -120.53736877 37.85348511 2 -1 0 
133 3 1 -1.00000000 129.10000610 349.53482056 -124.37513733 36.91418839 2 -1 0 
134 3 2 1.00000000 128.19999695 350.96601486 -127.68241119 35.54446793 2 -1 0 
135 3 2 1.00000000 128.19999695 350.47803497 -131.07644653 37.32464981 2 -1 0 
136 3 2 1.00000000 128.19999695 353.24591827 -131.84993744 39.73936081 2 -1 0 
137 3 1 -1.00000000 129.10000610 356.47906876 -130.24546814 40.44842148 2 -1 0 
138 3 2 1.00000000 128.19999695 360.09151077 -131.15963745 41.65539169 2 -1 0 
139 3 1 -1.00000000 129.10000610 363.14927292 -132.08238983 43.61214066 2 -1 0 
140 3 1 -1.00000000 129.10000610 366.46163177 -131.07878876 44.94052124 2 -1 0 
141 3 1 -1.00000000 129.10000610 368.70364761 -134.30699921 44.61748886 2 -1 0 
142 3 2 1.00000000 128.19999695 368.33376312 -137.83290863 43.71361160 2 -1 0 
143 3 1 -1.00000000 129.10000610 365.71572876 -139.79270935 45.50243378 2 -1 0 
144 3 2 1.00000000 128.19999695 363.62156296 -141.56934357 42.58264160 2 -1 0 
145 3 2 1.00000000 128.19999695 362.63177490 -144.93061829 44.49937057 2 -1 0 
146 3 2 1.00000000 128.19999695 359.17634583 -146.23336411 44.24654770 2 -1 0 
147 3 1 -1.00000000 129.10000610 356.19367599 -145.98587036 47.10220337 2 -1 0 
148 3 2 1.00000000 128.19999695 353.10142517 -145.79574585 49.05095291 2 -1 0 
149 3 1 -1.00000000 129.10000610 351.55132675 -148.97755051 48.22021484 2 -1 0 
150 3 2 1.00000000 128.19999695 348.05078888 -149.47001648 48.33150101 2 -1 0 
151 4 2 1.00000000 128.19999695 -328.32672119 397.23659515 -15.28851795 -2 2 0 
152 4 1 -1.00000000 129.10000610 -326.12079620 397.63441277 -12.39055443 -2 2 0 
153 4 2 1.00000000 128.19999695 -322.57041931 398.67605972 -12.00138187 -2 2 0 
154 4 2 1.00000000 128.19999695 -320.24816895 395.54095650 -11.22857285 -2 2 0 
155 4 2 1.00000000 128.19999695 -316.76789093 394.89918137 -11.55737114 -2 2 0 
156 4 1 -1.00000000 129.10000610 -315.18999481 391.65688133 -11.58737564 -2 2 0 
157 4 2 1.00000000 128.19999695 -312.68106079 389.05323601 -10.29944229 -2 2 0 
158 4 1 -1.00000000 129.10000610 -311.93003845 386.05719757 -8.08379650 -2 2 0 
159 4 1 -1.00000000 129.10000610 -310.93037415 383.75545692 -5.41062164 -1 2 0 
160 4 1 -1.00000000 129.10000610 -307.57138824 385.35534668 -3.98386431 -1 2 0 
161 4 2 1.00000000 128.19999695 -307.22354126 388.59409523 -4.11032486 -1 2 0 
162 4 1 -1.00000000 129.10000610 -307.01538849 392.02026749 -3.42893624 -1 2 0 
163 4 1 -1.00000000 129.10000610 -305.02767181 393.93031311 -1.36842763 -1 2 0 
164 4 1 -1.00000000 129.10000610 -303.08483887 397.14398384 -1.73118424 -1 2 0 
165 4 2 1.00000000 128.19999695 -304.81597900 399.89887238 0.51519996 -1 2 0 
166 4 2 1.00000000 128.19999695 -307.95336914 402.35179520 -0.37753066 -1 2 0 
167 4 1 -1.00000000 129.10000610 -311.52931213 401.79661846 1.11064482 -2 2 0 
168 4 1 -1.00000000 129.10000610 -311.55770874 404.22873402 3.62788892 -2 2 0 
169 4 2 1.00000000 128.19999695 -313.02354431 405.99726105 6.76885796 -2 2 0 
170 4 1 -1.00000000 129.10000610 -312.58615875 408.58373022 9.95841122 -2 2 0 
171 4 1 -1.00000000 129.10000610 -314.83292389 411.19091916 10.63551807 -2 2 0 
172 4 1 -1.00000000 129.10000610 -314.06461334 414.72207372 10.15476990 -2 2 0 
173 4 2 1.00000000 128.19999695 -313.72319031 415.41774499 6.47790384 -2 2 0 
174 4 1 -1.00000000 129.10000610 -311.56238556 416.04441392 3.54495072 -2 2 0 
175 4 1 -1.00000000 129.10000610 -309.45597839 419.04025412 5.22014189 -1 2 0 
176 4 2 1.00000000 128.19999695 -309.00910187 419.62985563 8.81071568 -1 2 0 
177 4 2 1.00000000 128.19999695 -308.28445435 417.03865647 11.56900215 -1 2 0 
178 4 2 1.00000000 128.19999695 -310.03460693 414.77606504 14.30063152 -1 2 0 
179 4 2 1.00000000 128.19999695 -312.00564575 414.02094275 17.54266930 -2 2 0 
180 4 2 1.00000000 128.19999695 -311.79145050 412.05006433 20.44484901 -2 2 0 
181 4 1 -1.00000000 129.10000610 -313.41973114 409.81080580 22.83411980 -2 2 0 
182 4 1 -1.00000000 129.10000610 -313.13004303 406.21731853 21.23866653 -2 2 0 
183 4 1 -1.00000000 129.10000610 -313.79083252 403.04013824 23.79505348 -2 2 0 
184 4 2 1.00000000 128.19999695 -311.28867340 403.16182804 26.89477539 -2 2 0 
185 4 2 1.00000000 128.19999695 -309.08242035 406.43994713 26.76116562 -1 2 0 
186 4 2 1.00000000 128.19999695 -306.14073944 408.47383738 26.58184052 -1 2 0 
187 4 1 -1.00000000 129.10000610 -302.89702606 406.25424004 27.23143768 -1 2 0 
188 4 2 1.00000000 128.19999695 -299.75154114 404.37855625 25.63909149 -1 2 0 
189 4 1 -1.00000000 129.10000610 -296.67486572 404.16762829 28.10358810 -1 2 0 
190 4 1 -1.00000000 129.10000610 -293.59100342 405.15621376 30.31007004 -1 2 0 
191 4 1 -1.00000000 129.10000610 -294.75419617 405.21350002 34.11552811 -1 2 0 
192 4 2 1.00000000 128.19999695 -297.86070251 405.97605896 35.80901718 -1 2 0 
193 4 1 -1.00000000 129.10000610 -300.74037170 403.70507622 34.74076843 -1 2 0 
194 4 2 1.00000000 128.19999695 -300.36014557 399.79135418 34.25592422 -1 2 0 
195 4 2 1.00000000 128.19999695 -303.75045013 399.44281864 31.87106514 -1 2 0 
196 4 2 1.00000000 128.19999695 -307.60583496 399.72569561 32.80696869 -1 2 0 
197 4 1 -1.00000000 129.10000610 -309.38763428 403.35673904 32.42712784 -1 2 0 
198 4 2 1.00000000 128.19999695 -312.92928314 405.19523239 32.63927841 -2 2 0 
199 4 1 -1.00000000 129.10000610 -316.55025482 404.52407455 31.69960785 -2 2 0 
200 4 2 1.00000000 128.19999695 -318.31514740 404.35101891 28.29095650 -2 2 0 
201 5 2 1.00000000 128.19999695 -304.17110443 -241.43238068 -269.05468369 -1 -1 -1 
202 5 1 -1.00000000 129.10000610 -301.27984619 -243.83135223 -269.90086746 -1 -1 -1 
203 5 2 1.00000000 128.19999695 -300.40570831 -247.24831772 -268.77362823 -1 -1 -1 
204 5 2 1.00000000 128.19999695 -297.95982361 -249.91955185 -267.64275742 -1 -1 -1 
205 5 2 1.00000000 128.19999695 -298.58560181 -250.80725098 -263.83886337 -1 -1 -1 
206 5 1 -1.00000000 129.10000610 -297.47464752 -250.50734329 -259.93907928 -1 -1 -1 
207 5 2 1.00000000 128.19999695 -297.64925385 -247.70018387 -257.15312958 -1 -1 -1 
208 5 1 -1.00000000 129.10000610 -301.30448914 -247.15958786 -257.92380524 -1 -1 -1 
209 5 1 -1.00000000 129.10000610 -303.48969269 -249.98760605 -258.45857239 -1 -1 -1 
210 5 1 -1.00000000 129.10000610 -304.34181976 -252.55524063 -255.66502380 -1 -1 -1 
211 5 2 1.00000000 128.19999695 -302.38175964 -251.91148758 -252.41867065 -1 -1 -1 
212 5 1 -1.00000000 129.10000610 -299.88283539 -251.25553513 -249.62552643 -1 -1 -1 
213 5 1 -1.00000000 129.10000610 -297.81803131 -252.92124176 -247.04127502 -1 -1 -1 
214 5 1 -1.00000000 129.10000610 -297.39231873 -256.63682556 -245.99265671 -1 -1 -1 
215 5 2 1.00000000 128.19999695 -296.54502106 -258.59932709 -242.71141052 -1 -1 -1 
216 5 2 1.00000000 128.19999695 -293.60768127 -260.70734406 -241.06691742 -1 -1 -1 
217 5 1 -1.00000000 129.10000610 -290.64625549 -259.34428024 -239.37724304 -1 -1 -1 
218 5 1 -1.00000000 129.10000610 -287.40135956 -259.41828537 -241.66540146 -1 -1 -1 
219 5 2 1.00000000 128.19999695 -284.21189880 -260.88786697 -240.23878098 -1 -1 -1 
220 5 1 -1.00000000 129.10000610 -282.83192444 -260.02537918 -236.96207619 -1 -1 -1 
221 5 1 -1.00000000 129.10000610 -278.71814728 -259.98514175 -236.49699020 -1 -1 -1 
222 5 1 -1.00000000 129.10000610 -277.60634613 -258.69712830 -239.48358154 -1 -1 -1 
223 5 2 1.00000000 128.19999695 -276.01327515 -255.48913956 -239.98868179 -1 -1 -1 
224 5 1 -1.00000000 129.10000610 -274.83928680 -253.18229675 -242.60594940 -1 -1 -1 
225 5 1 -1.00000000 129.10000610 -274.82035828 -249.93525696 -241.40775299 -1 -1 -1 
226 5 2 1.00000000 128.19999695 -273.33396149 -247.23405838 -243.01013184 -1 -1 -1 
227 5 2 1.00000000 128.19999695 -270.58316040 -247.70362091 -246.01527023 -1 -1 -1 
228 5 2 1.00000000 128.19999695 -270.85467529 -251.30618286 -246.18701553 -1 -1 -1 
229 5 2 1.00000000 128.19999695 -268.01934814 -254.07779312 -246.51396179 -1 -1 -1 
230 5 2 1.00000000 128.19999695 -264.79874420 -255.79113388 -247.10143661 -1 -1 -1 
231 5 1 -1.00000000 129.10000610 -262.60990906 -257.31557465 -244.28619766 -1 -1 -1 
232 5 1 -1.00000000 129.10000610 -263.66348648 -258.44365692 -240.77047729 -1 -1 -1 
233 5 1 -1.00000000 129.10000610 -264.81280899 -262.21146011 -241.47035599 -1 -1 -1 
234 5 2 1.00000000 128.19999695 -263.62486267 -264.71089172 -244.09068298 -1 -1 -1 
235 5 2 1.00000000 128.19999695 -261.28932190 -267.29122162 -242.96440506 -1 -1 -1 
236 5 2 1.00000000 128.19999695 -261.13672638 -268.37360382 -239.36881638 -1 -1 -1 
237 5 1 -1.00000000 129.10000610 -261.04732513 -268.03413391 -235.76655388 -1 -1 -1 
238 5 2 1.00000000 128.19999695 -259.57838821 -264.74813461 -234.24126053 -1 -1 -1 
239 5 1 -1.00000000 129.10000610 -261.70988083 -261.96114731 -232.83519745 -1 -1 -1 
240 5 1 -1.00000000 129.10000610 -260.79032898 -262.37380600 -229.01213074 -1 -1 -1 
241 5 1 -1.00000000 129.10000610 -262.11481094 -260.46571732 -225.89408493 -1 -1 -1 
242 5 2 1.00000000 128.19999695 -264.15180969 -257.56874466 -225.12162781 -1 -1 -1 
243 5 1 -1.00000000 129.10000610 -266.65974045 -258.42361069 -222.46540165 -1 -1 -1 
244 5 2 1.00000000 128.19999695 -269.24196243 -261.61527252 -222.81856251 -1 -1 -1 
245 5 2 1.00000000 128.19999695 -266.59703827 -264.35440445 -222.13256836 -1 -1 -1 
246 5 2 1.00000000 128.19999695 -263.04879379 -265.97349548 -221.83094883 -1 -1 -1 
247 5 1 -1.00000000 129.10000610 -261.21554565 -266.50125885 -218.50780869 -1 -1 -1 
248 5 2 1.00000000 128.19999695 -259.92688751 -263.65790176 -216.42592335 -1 -1 -1 
249 5 1 -1.00000000 129.10000610 -262.89836502 -260.88879395 -216.24817276 -1 -1 -1 
250 5 2 1.00000000 128.19999695 -263.50345612 -259.62886810 -212.58019304 -1 -1 -1 
251 6 2 1.00000000 128.19999695 410.30218363 -482.67327118 -124.22163391 2 -2 -1 
252 6 1 -1.00000000 129.10000610 412.12858367 -481.92281342 -127.14335632 2 -2 -1 
253 6 2 1.00000000 128.19999695 413.92348140 -483.42036438 -130.22962189 2 -2 -1 
254 6 2 1.00000000 128.19999695 416.71122503 -486.16594696 -130.69783020 2 -2 -1 
255 6 2 1.00000000 128.19999695 417.19544554 -489.36051941 -128.63951111 2 -2 -1 
256 6 1 -1.00000000 129.10000610 420.22081709 -491.10160065 -130.20709229 2 -2 -1 
257 6 2 1.00000000 128.19999695 421.91598129 -491.38886261 -133.23335266 2 -2 -1 
258 6 1 -1.00000000 129.10000610 422.13918352 -488.43508148 -135.30422974 2 -2 -1 
259 6 1 -1.00000000 129.10000610 423.08321667 -484.84725189 -136.57615662 2 -2 -1 
260 6 1 -1.00000000 129.10000610 423.16417885 -483.87641907 -140.17980194 2 -2 -1 
261 6 2 1.00000000 128.19999695 425.13194752 -481.93746948 -143.04760742 2 -2 -1 
262 6 1 -1.00000000 129.10000610 427.75275612 -480.39786530 -145.01751328 2 -2 -1 
263 6 1 -1.00000000 129.10000610 426.65046215 -480.38893127 -148.87319565 2 -2 -1 
264 6 1 -1.00000000 129.10000610 427.45405293 -482.00660706 -152.11048889 2 -2 -1 
265 6 2 1.00000000 128.19999695 430.62270737 -483.96389771 -153.89081573 2 -2 -1 
266 6 2 1.00000000 128.19999695 431.95957184 -482.36679077 -157.17848206 2 -2 -1 
267 6 1 -1.00000000 129.10000610 430.25374794 -478.85503387 -157.98844147 2 -2 -1 
268 6 1 -1.00000000 129.10000610 426.91919136 -477.60496521 -160.32495880 2 -2 -1 
269 6 2 1.00000000 128.19999695 424.22926617 -479.56855011 -158.42967224 2 -2 -1 
270 6 1 -1.00000000 129.10000610 422.64500427 -482.25467682 -156.03370667 2 -2 -1 
271 6 1 -1.00000000 129.10000610 423.28375244 -486.02572632 -157.33900070 2 -2 -1 
272 6 1 -1.00000000 129.10000610 426.16618443 -486.41793060 -159.64199066 2 -2 -1 
273 6 2 1.00000000 128.19999695 426.12172413 -485.93483734 -163.46281815 2 -2 -1 
274 6 1 -1.00000000 129.10000610 423.38814735 -485.02924347 -166.10211563 2 -2 -1 
275 6 1 -1.00000000 129.10000610 421.13050032 -482.42143250 -167.15827179 2 -2 -1 
276 6 2 1.00000000 128.19999695 421.95050478 -480.44240570 -170.21029663 2 -2 -1 
277 6 2 1.00000000 128.19999695 423.70167542 -477.10580063 -170.21475983 2 -2 -1 
278 6 2 1.00000000 128.19999695 427.44929123 -475.82487488 -170.01514816 2 -2 -1 
279 6 2 1.00000000 128.19999695 428.88964558 -476.77136612 -173.36062622 2 -2 -1 
280 6 2 1.00000000 128.19999695 432.20956612 -475.07305145 -173.47310257 2 -2 -1 
281 6 1 -1.00000000 129.10000610 435.82047081 -476.77946091 -174.81315994 2 -2 -1 
282 6 1 -1.00000000 129.10000610 437.46610260 -473.49168777 -175.49641609 2 -2 -1 
283 6 1 -1.00000000 129.10000610 439.89900970 -471.47666931 -173.88785553 2 -2 -1 
284 6 2 1.00000000 128.19999695 443.38096428 -472.49815750 -173.61916351 2 -2 -1 
285 6 2 1.00000000 128.19999695 446.17590523 -472.94746017 -176.48427200 2 -2 -1 
286 6 2 1.00000000 128.19999695 448.76172638 -469.71989059 -175.91185760 2 -2 -1 
287 6 1 -1.00000000 129.10000610 448.54804993 -465.97319794 -175.34929657 2 -2 -1 
288 6 2 1.00000000 128.19999695 449.07638931 -462.62533951 -173.46949768 2 -2 -1 
289 6 1 -1.00000000 129.10000610 451.24493027 -463.85546494 -170.48501968 2 -2 -1 
290 6 1 -1.00000000 129.10000610 449.43940353 -466.60419846 -168.35186386 2 -2 -1 
291 6 1 -1.00000000 129.10000610 447.91033173 -466.71275330 -164.81385040 2 -2 -1 
292 6 2 1.00000000 128.19999695 450.23131180 -467.78512192 -162.08729172 2 -2 -1 
293 6 1 -1.00000000 129.10000610 449.76130676 -470.91427231 -160.36962891 2 -2 -1 
294 6 2 1.00000000 128.19999695 449.69869232 -472.00845718 -156.58938599 2 -2 -1 
295 6 2 1.00000000 128.19999695 447.18042755 -470.60163116 -154.31324768 2 -2 -1 
296 6 2 1.00000000 128.19999695 445.67686844 -470.73843765 -150.70374680 2 -2 -1 
297 6 1 -1.00000000 129.10000610 447.83214569 -471.50775528 -147.78919601 2 -2 -1 
298 6 2 1.00000000 128.19999695 450.65841675 -471.64696121 -145.49159622 2 -2 -1 
299 6 1 -1.00000000 129.10000610 452.01629639 -469.93973923 -142.39545441 2 -2 -1 
300 6 2 1.00000000 128.19999695 450.39687729 -467.34658432 -140.17146301 2 -2 -1 
301 7 2 1.00000000 128.19999695 2.27380562 -13.26716042 -839.43521786 0 0 -4 
302 7 1 -1.00000000 129.10000610 3.85833001 -16.19191360 -837.49435043 0 0 -4 
303 7 2 1.00000000 128.19999695 4.91665316 -16.55207062 -833.81248856 0 0 -4 
304 7 2 1.00000000 128.19999695 7.58497095 -15.30683231 -831.24631572 0 0 -4 
305 7 2 1.00000000 128.19999695 9.27129555 -15.68640423 -827.62219822 0 0 -4 
306 7 1 -1.00000000 129.10000610 9.87424278 -15.55738068 -823.71287775 0 0 -4 
307 7 2 1.00000000 128.19999695 12.44267464 -16.58370018 -820.60918331 0 0 -4 
308 7 1 -1.00000000 129.10000610 14.17950821 -13.38170242 -820.19535351 0 0 -4 
309 7 1 -1.00000000 129.10000610 17.52859306 -11.79634285 -821.73739052 0 0 -4 
310 7 1 -1.00000000 129.10000610 19.11778450 -8.96626568 -824.03543091 0 0 -4 
311 7 2 1.00000000 128.19999695 18.79147339 -5.86917162 -826.02762079 0 0 -4 
312 7 1 -1.00000000 129.10000610 17.75589561 -1.90597713 -825.60306549 0 0 -4 
313 7 1 -1.00000000 129.10000610 15.01260757 0.72475094 -826.35777831 0 0 -4 
314 7 1 -1.00000000 129.10000610 15.52402020 4.12808228 -825.74566054 0 0 -4 
315 7 2 1.00000000 128.19999695 14.50771713 4.72627831 -821.97162533 0 0 -4 
316 7 2 1.00000000 128.19999695 11.81241608 2.35243297 -820.45168304 0 0 -4 
317 7 1 -1.00000000 129.10000610 8.74455738 0.94742441 -818.33164787 0 0 -4 
318 7 1 -1.00000000 129.10000610 5.61343098 1.62798738 -817.07830906 0 0 -4 
319 7 2 1.00000000 128.19999695 2.16600466 2.41689324 -816.19301605 0 0 -4 
320 7 1 -1.00000000 129.10000610 -1.47748458 1.55752110 -817.43412018 0 0 -4 
321 7 1 -1.00000000 129.10000610 -4.57671356 -0.31338891 -817.10489368 0 0 -4 
322 7 1 -1.00000000 129.10000610 -4.89263201 -4.22810507 -816.32035255 0 0 -4 
323 7 2 1.00000000 128.19999695 -4.71833181 -7.98490667 -815.43714428 0 0 -4 
324 7 1 -1.00000000 129.10000610 -5.50252485 -11.27277470 -817.20427418 0 0 -4 
325 7 1 -1.00000000 129.10000610 -2.37442279 -12.85107327 -818.75087833 0 0 -4 
326 7 2 1.00000000 128.19999695 -0.86882001 -15.89655304 -817.60145950 0 0 -4 
327 7 2 1.00000000 128.19999695 -2.69349980 -18.75962830 -815.69190216 0 0 -4 
328 7 2 1.00000000 128.19999695 -6.41536713 -18.21396637 -815.06024170 0 0 -4 
329 7 2 1.00000000 128.19999695 -10.06987095 -18.18435097 -813.59107780 0 0 -4 
330 7 2 1.00000000 128.19999695 -12.74405289 -19.66606903 -811.38515854 0 0 -4 
331 7 1 -1.00000000 129.10000610 -16.42000771 -20.07538033 -811.12831879 0 0 -4 
332 7 1 -1.00000000 129.10000610 -20.00126839 -20.31046486 -810.25675011 0 0 -4 
333 7 1 -1.00000000 129.10000610 -23.26711464 -20.45263481 -812.74075508 0 0 -4 
334 7 2 1.00000000 128.19999695 -24.17620468 -24.00841904 -812.36627388 0 0 -4 
335 7 2 1.00000000 128.19999695 -24.03258705 -25.67959785 -808.91456223 0 0 -4 
336 7 2 1.00000000 128.19999695 -20.93997002 -27.69830132 -807.90635681 0 0 -4 
337 7 1 -1.00000000 129.10000610 -19.56845665 -27.36628151 -804.53456497 0 0 -4 
338 7 2 1.00000000 128.19999695 -21.16507530 -25.37376022 -801.62981987 0 0 -4 
339 7 1 -1.00000000 129.10000610 -23.22295380 -27.84614372 -799.44937325 0 0 -4 
340 7 1 -1.00000000 129.10000610 -21.65094566 -31.32693481 -799.74282455 0 0 -4 
341 7 1 -1.00000000 129.10000610 -18.95318985 -34.04120636 -799.17953491 0 0 -4 
342 7 2 1.00000000 128.19999695 -17.09887695 -37.21717453 -798.27881241 0 0 -4 
343 7 1 -1.00000000 129.10000610 -15.12113857 -40.52159119 -799.11738586 0 0 -4 
344 7 2 1.00000000 128.19999695 -11.46848297 -41.73107147 -798.78427696 0 0 -4 
345 7 2 1.00000000 128.19999695 -8.33608818 -40.55758286 -798.11882401 0 0 -4 
346 7 2 1.00000000 128.19999695 -7.34658861 -38.48599625 -795.37849808 0 0 -4 
347 7 1 -1.00000000 129.10000610 -4.25552511 -40.36696243 -793.77159119 0 0 -4 
348 7 2 1.00000000 128.19999695 -2.40347052 -43.53151321 -794.87986755 0 0 -4 
349 7 1 -1.00000000 129.10000610 0.76335973 -42.76985550 -796.81940079 0 0 -4 
350 7 2 1.00000000 128.19999695 4.31531286 -43.13319397 -798.29552650 0 0 -4 
351 8 2 1.00000000 128.19999695 56.89147949 -252.58752441 577.00977325 0 -1 3 
352 8 1 -1.00000000 129.10000610 59.02405548 -254.06435394 579.47573853 0 -1 3 
353 8 2 1.00000000 128.19999695 57.66482544 -254.15635681 582.89065552 0 -1 3 
354 8 2 1.00000000 128.19999695 56.56789398 -250.78838348 584.90728378 0 -1 3 
355 8 2 1.00000000 128.19999695 56.43135834 -248.46092224 587.89546204 0 -1 3 
356 8 1 -1.00000000 129.10000610 55.26763153 -250.38291931 590.88117409 0 -1 3 
357 8 2 1.00000000 128.19999695 57.27528381 -251.47636032 594.11737251 0 -1 3 
358 8 1 -1.00000000 129.10000610 58.18639755 -255.07495499 592.95882416 0 -1 3 
359 8 1 -1.00000000 129.10000610 61.44523621 -255.75033951 591.50039291 0 -1 3 
360 8 1 -1.00000000 129.10000610 62.17658615 -254.07448578 588.14781189 0 -1 3 
361 8 2 1.00000000 128.19999695 63.70347977 -250.29708099 587.40042877 0 -1 3 
362 8 1 -1.00000000 129.10000610 62.38164902 -246.84674072 586.39574432 0 -1 3 
363 8 1 -1.00000000 129.10000610 64.29428864 -245.70317078 583.25954437 0 -1 3 
364 8 1 -1.00000000 129.10000610 63.63903046 -247.79756546 580.09125137 0 -1 3 
365 8 2 1.00000000 128.19999695 66.38692474 -248.20021439 577.58609772 0 -1 3 
366 8 2 1.00000000 128.19999695 67.14103699 -247.60043716 574.00601196 0 -1 3 
367 8 1 -1.00000000 129.10000610 68.36807251 -245.38003159 571.33502960 0 -1 3 
368 8 1 -1.00000000 129.10000610 65.75572968 -242.75603867 570.73403168 0 -1 3 