ITEM: TIMESTEP
44050000 
ITEM: NUMBER OF ATOMS 
25000 
ITEM: BOX BOUNDS pp pp pp 
-103.678017 103.678017 
-103.678017 103.678017 
-103.678017 103.678017 
ITEM: ATOMS id mol type q mass xu yu zu ix iy iz 
1 1 2 1.00000000 128.19999695 532.37044525 -207.23627904 -233.92334557 3 -1 -1 
2 1 1 -1.00000000 129.10000610 532.86521149 -207.81619331 -237.70946693 3 -1 -1 
3 1 2 1.00000000 128.19999695 534.85668182 -210.11061668 -239.35369492 3 -1 -1 
4 1 2 1.00000000 128.19999695 535.10338593 -212.07668400 -242.67104340 3 -1 -1 
5 1 2 1.00000000 128.19999695 537.32088470 -214.21477365 -245.15282440 3 -1 -1 
6 1 1 -1.00000000 129.10000610 536.04713440 -217.92074013 -245.14708328 3 -1 -1 
7 1 2 1.00000000 128.19999695 533.48627472 -220.59623337 -243.85710907 3 -1 -1 
8 1 1 -1.00000000 129.10000610 530.24654388 -221.73925972 -245.69483185 3 -1 -1 
9 1 1 -1.00000000 129.10000610 529.52919769 -219.19946671 -248.68110275 3 -1 -1 
10 1 1 -1.00000000 129.10000610 532.34316254 -217.87583447 -250.86222076 3 -1 -1 
11 1 2 1.00000000 128.19999695 532.45920563 -217.91286182 -254.61113358 3 -1 -1 
12 1 1 -1.00000000 129.10000610 529.77101898 -217.85918999 -257.29180908 3 -1 -1 
13 1 1 -1.00000000 129.10000610 528.53028107 -216.33213520 -260.64741898 3 -1 -1 
14 1 1 -1.00000000 129.10000610 529.43323517 -216.16415215 -264.42380142 3 -1 -1 
15 1 2 1.00000000 128.19999695 527.13946533 -213.20872402 -265.53721619 3 -1 -1 
16 1 2 1.00000000 128.19999695 524.31998444 -211.12922335 -263.74449158 3 -1 -1 
17 1 1 -1.00000000 129.10000610 522.52336884 -208.50734913 -262.06529236 3 -1 -1 
18 1 1 -1.00000000 129.10000610 523.02528381 -205.07841802 -262.01610947 3 -1 -1 
19 1 2 1.00000000 128.19999695 524.54505920 -202.05080032 -264.40121460 3 -1 -1 
20 1 1 -1.00000000 129.10000610 525.09263611 -199.21362495 -266.94541550 3 -1 -1 
21 1 1 -1.00000000 129.10000610 527.51750946 -196.22825146 -266.88495255 3 -1 -1 
22 1 1 -1.00000000 129.10000610 526.08679199 -193.31949711 -268.85540009 3 -1 -1 
23 1 2 1.00000000 128.19999695 524.72315216 -190.48447037 -270.57089996 3 -1 -1 
24 1 1 -1.00000000 129.10000610 525.46887207 -187.17845726 -268.78557587 3 -1 -1 
25 1 1 -1.00000000 129.10000610 528.52172089 -187.21096992 -266.29030228 3 -1 -1 
26 1 2 1.00000000 128.19999695 529.07888031 -190.39698601 -263.96163177 3 -1 -1 
27 1 2 1.00000000 128.19999695 532.76385498 -190.69600296 -262.65736771 3 -1 -1 
28 1 2 1.00000000 128.19999695 535.40247345 -190.24066925 -265.40678787 3 -1 -1 
29 1 2 1.00000000 128.19999695 539.36140442 -191.06351471 -265.43774414 3 -1 -1 
30 1 2 1.00000000 128.19999695 541.49508667 -191.08838463 -268.50457001 3 -1 -1 
31 1 1 -1.00000000 129.10000610 543.31755829 -187.53012657 -268.71561432 3 -1 -1 
32 1 1 -1.00000000 129.10000610 543.89251709 -184.44943047 -271.22294998 3 -1 -1 
33 1 1 -1.00000000 129.10000610 545.79392242 -181.47978973 -269.13770294 3 -1 -1 
34 1 2 1.00000000 128.19999695 549.15768433 -179.42993164 -268.56597137 3 -1 -1 
35 1 2 1.00000000 128.19999695 550.66600800 -181.55554199 -265.64215851 3 -1 -1 
36 1 2 1.00000000 128.19999695 552.03952026 -185.08985519 -265.53090668 3 -1 -1 
37 1 1 -1.00000000 129.10000610 550.46870422 -187.22900391 -262.56195831 3 -1 -1 
38 1 2 1.00000000 128.19999695 547.45428467 -185.94175148 -260.38502502 3 -1 -1 
39 1 1 -1.00000000 129.10000610 545.27469635 -189.06112671 -260.26369095 3 -1 -1 
40 1 1 -1.00000000 129.10000610 543.82493591 -192.45762730 -258.99216080 3 -1 -1 
41 1 1 -1.00000000 129.10000610 545.44934082 -195.71661663 -258.84687042 3 -1 -1 
42 1 2 1.00000000 128.19999695 549.47774506 -195.53954220 -258.20584488 3 -1 -1 
43 1 1 -1.00000000 129.10000610 550.97210693 -195.12125874 -261.81770706 3 -1 -1 
44 1 2 1.00000000 128.19999695 552.49557495 -197.85827541 -263.49649429 3 -1 -1 
45 1 2 1.00000000 128.19999695 555.78558350 -199.53434181 -264.40639877 3 -1 -1 
46 1 2 1.00000000 128.19999695 559.36402512 -198.62078953 -264.02803802 3 -1 -1 
47 1 1 -1.00000000 129.10000610 562.41588974 -197.84692192 -262.50973892 3 -1 -1 
48 1 2 1.00000000 128.19999695 565.99225616 -199.17871284 -261.26603317 3 -1 -1 
49 1 1 -1.00000000 129.10000610 568.75699615 -201.56907415 -260.63067627 3 -1 -1 
50 1 2 1.00000000 128.19999695 572.07810974 -203.22040319 -262.26516342 3 -1 -1 
51 2 2 1.00000000 128.19999695 522.64169312 291.62479401 -318.03591919 3 1 -2 
52 2 1 -1.00000000 129.10000610 522.79674530 289.32846069 -320.90023804 3 1 -2 
53 2 2 1.00000000 128.19999695 523.19650269 287.06662750 -324.35060883 3 1 -2 
54 2 2 1.00000000 128.19999695 525.19049072 288.44653320 -327.38388062 3 1 -2 
55 2 2 1.00000000 128.19999695 524.11688995 290.53035736 -330.32034302 3 1 -2 
56 2 1 -1.00000000 129.10000610 527.14956665 292.82118988 -331.52745056 3 1 -2 
57 2 2 1.00000000 128.19999695 525.46398926 296.24333954 -330.96887970 3 1 -2 
58 2 1 -1.00000000 129.10000610 525.61707306 298.18840790 -334.23838043 3 1 -2 
59 2 1 -1.00000000 129.10000610 528.10837555 299.01846313 -337.27747345 3 1 -2 
60 2 1 -1.00000000 129.10000610 526.92734528 302.65081787 -338.38999176 3 1 -2 
61 2 2 1.00000000 128.19999695 523.38291168 304.31107330 -338.30657959 3 1 -2 
62 2 1 -1.00000000 129.10000610 522.43450928 305.78243256 -335.16886139 3 1 -2 
63 2 1 -1.00000000 129.10000610 522.81774139 309.48675537 -335.79335022 3 1 -2 
64 2 1 -1.00000000 129.10000610 525.36061096 312.00655365 -337.32286835 3 2 -2 
65 2 2 1.00000000 128.19999695 526.36075592 314.48181152 -334.85452271 3 2 -2 
66 2 2 1.00000000 128.19999695 529.13339996 313.35136414 -332.59476471 3 2 -2 
67 2 1 -1.00000000 129.10000610 532.25406647 313.98460388 -329.72586823 3 2 -2 
68 2 1 -1.00000000 129.10000610 534.20182800 311.04766083 -327.84796906 3 2 -2 
69 2 2 1.00000000 128.19999695 535.74941254 310.30895233 -324.64393616 3 1 -2 
70 2 1 -1.00000000 129.10000610 539.22930145 312.11041260 -323.81970978 3 2 -2 
71 2 1 -1.00000000 129.10000610 540.17276001 312.58586121 -320.36230469 3 2 -2 
72 2 1 -1.00000000 129.10000610 540.42314148 316.08763885 -318.34677887 3 2 -2 
73 2 2 1.00000000 128.19999695 543.46969604 318.66057587 -318.39187622 3 2 -2 
74 2 1 -1.00000000 129.10000610 544.28266144 319.78906250 -321.97393799 3 2 -2 
75 2 1 -1.00000000 129.10000610 546.94355774 320.86305237 -325.31629181 3 2 -2 
76 2 2 1.00000000 128.19999695 545.03669739 319.48875427 -328.65374756 3 2 -2 
77 2 2 1.00000000 128.19999695 544.49002838 315.81366730 -329.34004974 3 2 -2 
78 2 2 1.00000000 128.19999695 547.63526917 313.58052063 -330.48983765 3 2 -2 
79 2 2 1.00000000 128.19999695 547.26999664 310.24967957 -328.66661835 3 1 -2 
80 2 2 1.00000000 128.19999695 546.00804901 307.46858978 -326.24376678 3 1 -2 
81 2 1 -1.00000000 129.10000610 545.73738098 305.91615295 -322.60733032 3 1 -2 
82 2 1 -1.00000000 129.10000610 542.80754089 307.11484528 -320.60839081 3 1 -2 
83 2 1 -1.00000000 129.10000610 543.00686646 304.05413818 -318.15377045 3 1 -2 
84 2 2 1.00000000 128.19999695 546.72227478 303.76729584 -317.13761139 3 1 -2 
85 2 2 1.00000000 128.19999695 549.67789459 301.75196075 -318.35502625 3 1 -2 
86 2 2 1.00000000 128.19999695 553.08119202 303.54683685 -319.49184418 3 1 -2 
87 2 1 -1.00000000 129.10000610 552.00420380 306.99274445 -321.31835175 3 1 -2 
88 2 2 1.00000000 128.19999695 552.28392029 307.19206238 -324.92478943 3 1 -2 
89 2 1 -1.00000000 129.10000610 554.48800659 309.51554871 -326.20156860 3 1 -2 
90 2 1 -1.00000000 129.10000610 556.61511230 311.10265350 -328.85376740 3 2 -2 
91 2 1 -1.00000000 129.10000610 557.74393463 313.75479889 -331.12890625 3 2 -2 
92 2 2 1.00000000 128.19999695 560.01820755 316.67463684 -331.05515289 3 2 -2 
93 2 1 -1.00000000 129.10000610 562.60346603 316.12258148 -328.02370453 3 2 -2 
94 2 2 1.00000000 128.19999695 565.28314972 313.76338959 -327.90732574 3 2 -2 
95 2 2 1.00000000 128.19999695 567.22153854 312.15008545 -325.23334503 3 2 -2 
96 2 2 1.00000000 128.19999695 567.93500137 308.21005249 -325.55056000 3 1 -2 
97 2 1 -1.00000000 129.10000610 570.01998520 307.54484558 -322.15749359 3 1 -2 
98 2 2 1.00000000 128.19999695 567.74440384 306.86607361 -319.31774139 3 1 -2 
99 2 1 -1.00000000 129.10000610 567.07256699 308.13986969 -315.59287262 3 1 -2 
100 2 2 1.00000000 128.19999695 565.56875992 311.79756927 -315.56729889 3 2 -2 
101 3 2 1.00000000 128.19999695 311.43897247 -106.98532867 150.89254761 2 -1 1 
102 3 1 -1.00000000 129.10000610 314.77354431 -105.86495972 149.37266541 2 -1 1 
103 3 2 1.00000000 128.19999695 315.50054932 -107.71035004 146.34188461 2 -1 1 
104 3 2 1.00000000 128.19999695 313.05208588 -108.01380920 143.29800415 2 -1 1 
105 3 2 1.00000000 128.19999695 311.34611511 -110.49136353 140.83141327 2 -1 1 
106 3 1 -1.00000000 129.10000610 308.25663757 -111.49410248 138.21407318 1 -1 1 
107 3 2 1.00000000 128.19999695 307.73387146 -113.80400848 135.39395142 1 -1 1 
108 3 1 -1.00000000 129.10000610 309.63777924 -116.87953186 135.30804443 1 -1 1 
109 3 1 -1.00000000 129.10000610 311.69213867 -120.31558990 135.27051544 2 -1 1 
110 3 1 -1.00000000 129.10000610 310.97261047 -123.79527283 134.51055145 1 -1 1 
111 3 2 1.00000000 128.19999695 309.54137421 -126.81958008 136.36711884 1 -1 1 
112 3 1 -1.00000000 129.10000610 310.72815704 -130.26501465 136.47309113 1 -1 1 
113 3 1 -1.00000000 129.10000610 311.70513153 -134.00078583 136.29675293 2 -1 1 
114 3 1 -1.00000000 129.10000610 312.44438934 -135.17929077 132.76574707 2 -1 1 
115 3 2 1.00000000 128.19999695 311.21010590 -136.02700043 129.03343201 2 -1 1 
116 3 2 1.00000000 128.19999695 313.13645172 -136.43182373 125.85011292 2 -1 1 
117 3 1 -1.00000000 129.10000610 314.01497650 -136.31637573 122.20405579 2 -1 1 
118 3 1 -1.00000000 129.10000610 317.21352386 -134.08448792 122.13770294 2 -1 1 
119 3 2 1.00000000 128.19999695 318.11782074 -131.74325562 124.85171509 2 -1 1 
120 3 1 -1.00000000 129.10000610 318.65029144 -127.80551147 123.89199066 2 -1 1 
121 3 1 -1.00000000 129.10000610 322.48355103 -126.70739746 124.09580994 2 -1 1 
122 3 1 -1.00000000 129.10000610 324.44925690 -124.90269470 121.36631012 2 -1 1 
123 3 2 1.00000000 128.19999695 328.08746338 -124.90555573 120.32075500 2 -1 1 
124 3 1 -1.00000000 129.10000610 331.44309998 -124.38379669 118.44042969 2 -1 1 
125 3 1 -1.00000000 129.10000610 334.85830688 -123.64055634 118.91012573 2 -1 1 
126 3 2 1.00000000 128.19999695 338.22961426 -124.81210327 119.86257172 2 -1 1 
127 3 2 1.00000000 128.19999695 341.43988037 -126.19718170 121.76927185 2 -1 1 
128 3 2 1.00000000 128.19999695 343.42759705 -125.40763092 124.91902924 2 -1 1 
129 3 2 1.00000000 128.19999695 343.74807739 -126.68370056 128.41426849 2 -1 1 
130 3 2 1.00000000 128.19999695 342.41819763 -130.12876129 129.23285675 2 -1 1 
131 3 1 -1.00000000 129.10000610 339.08548737 -130.75338745 127.40886688 2 -1 1 
132 3 1 -1.00000000 129.10000610 336.89109802 -127.54014587 127.84860229 2 -1 1 
133 3 1 -1.00000000 129.10000610 333.31430054 -127.90676880 128.46172333 2 -1 1 
134 3 2 1.00000000 128.19999695 329.79819489 -129.90254974 127.06149292 2 -1 1 
135 3 2 1.00000000 128.19999695 328.50144958 -131.02538300 123.82272339 2 -1 1 
136 3 2 1.00000000 128.19999695 329.64206696 -131.86432648 120.63681793 2 -1 1 
137 3 1 -1.00000000 129.10000610 332.50958252 -134.25148773 120.07032013 2 -1 1 
138 3 2 1.00000000 128.19999695 335.17297363 -133.83064270 117.57118988 2 -1 1 
139 3 1 -1.00000000 129.10000610 336.30379486 -132.32236481 114.19934845 2 -1 1 
140 3 1 -1.00000000 129.10000610 335.49681854 -130.97901917 110.74745178 2 -1 1 
141 3 1 -1.00000000 129.10000610 336.77294922 -127.55422211 109.37570953 2 -1 1 
142 3 2 1.00000000 128.19999695 335.62166595 -124.15729523 110.43714905 2 -1 1 
143 3 1 -1.00000000 129.10000610 337.82624054 -121.46964264 110.16439819 2 -1 1 
144 3 2 1.00000000 128.19999695 341.67715454 -121.21484375 109.05918121 2 -1 1 
145 3 2 1.00000000 128.19999695 344.46105194 -121.72704315 106.60724640 2 -1 1 
146 3 2 1.00000000 128.19999695 348.07263184 -121.07945251 108.05756378 2 -1 1 
147 3 1 -1.00000000 129.10000610 349.78719330 -122.79271698 110.49446869 2 -1 1 
148 3 2 1.00000000 128.19999695 351.17253494 -121.41542053 113.77217865 2 -1 1 
149 3 1 -1.00000000 129.10000610 354.88275146 -120.12590027 113.77915955 2 -1 1 
150 3 2 1.00000000 128.19999695 357.27344513 -122.57038116 115.69183350 2 -1 1 
151 4 2 1.00000000 128.19999695 -296.97545624 363.28234482 -47.85982513 -1 2 0 
152 4 1 -1.00000000 129.10000610 -296.74847412 364.10758209 -44.11499405 -1 2 0 
153 4 2 1.00000000 128.19999695 -295.02098083 361.67953110 -41.81204605 -1 2 0 
154 4 2 1.00000000 128.19999695 -292.52919006 360.08872604 -39.54190826 -1 2 0 
155 4 2 1.00000000 128.19999695 -290.89842224 359.29825592 -36.01221848 -1 2 0 
156 4 1 -1.00000000 129.10000610 -293.55657196 359.73855209 -33.21134949 -1 2 0 
157 4 2 1.00000000 128.19999695 -293.73619843 360.74770355 -29.80223846 -1 2 0 
158 4 1 -1.00000000 129.10000610 -296.89062500 362.62221146 -29.00340271 -1 2 0 
159 4 1 -1.00000000 129.10000610 -300.65727234 363.89953232 -29.28675842 -1 2 0 
160 4 1 -1.00000000 129.10000610 -302.16311646 367.25684738 -27.69614792 -1 2 0 
161 4 2 1.00000000 128.19999695 -305.48773193 366.24181747 -26.06166840 -1 2 0 
162 4 1 -1.00000000 129.10000610 -308.99462128 365.56424332 -23.83243561 -1 2 0 
163 4 1 -1.00000000 129.10000610 -309.68978119 363.09758377 -20.99281502 -1 2 0 
164 4 1 -1.00000000 129.10000610 -308.63478851 359.61222076 -22.17207336 -1 2 0 
165 4 2 1.00000000 128.19999695 -309.14912415 355.70717621 -22.67847061 -1 2 0 
166 4 2 1.00000000 128.19999695 -311.28526306 353.07404327 -23.88873482 -2 2 0 
167 4 1 -1.00000000 129.10000610 -312.94705963 349.94104767 -22.93197060 -2 2 0 
168 4 1 -1.00000000 129.10000610 -313.11850739 345.95634460 -22.11912727 -2 2 0 
169 4 2 1.00000000 128.19999695 -311.08056641 344.99792480 -19.34394073 -2 2 0 
170 4 1 -1.00000000 129.10000610 -308.67918396 343.16888428 -16.68489075 -1 2 0 
171 4 1 -1.00000000 129.10000610 -307.21881866 345.83672333 -14.24525452 -1 2 0 
172 4 1 -1.00000000 129.10000610 -308.65827942 349.21105957 -13.35716152 -1 2 0 
173 4 2 1.00000000 128.19999695 -311.04772949 351.49869537 -11.58921528 -2 2 0 
174 4 1 -1.00000000 129.10000610 -313.84120941 354.31556702 -11.04160213 -2 2 0 
175 4 1 -1.00000000 129.10000610 -315.62120056 353.32569122 -8.10174942 -2 2 0 
176 4 2 1.00000000 128.19999695 -314.52869415 353.74651718 -4.44155407 -2 2 0 
177 4 2 1.00000000 128.19999695 -314.64663696 355.14399338 -0.66621429 -2 2 0 
178 4 2 1.00000000 128.19999695 -312.67286682 357.33697128 1.55222869 -2 2 0 
179 4 2 1.00000000 128.19999695 -313.25981140 360.12212753 3.89158535 -2 2 0 
180 4 2 1.00000000 128.19999695 -311.58396912 361.93040848 6.68666744 -2 2 0 
181 4 1 -1.00000000 129.10000610 -313.28592682 360.67475891 9.95920181 -2 2 0 
182 4 1 -1.00000000 129.10000610 -312.96337891 357.11327362 11.15681744 -2 2 0 
183 4 1 -1.00000000 129.10000610 -315.50118256 355.26483917 13.42714214 -2 2 0 
184 4 2 1.00000000 128.19999695 -317.30314636 352.44020081 15.69335938 -2 2 0 
185 4 2 1.00000000 128.19999695 -317.28916168 348.68605042 16.23417664 -2 2 0 
186 4 2 1.00000000 128.19999695 -315.76818085 345.25757599 14.62671375 -2 2 0 
187 4 1 -1.00000000 129.10000610 -313.52741241 342.77554321 12.88812542 -2 2 0 
188 4 2 1.00000000 128.19999695 -310.43305206 341.72597504 15.36546612 -1 2 0 
189 4 1 -1.00000000 129.10000610 -307.65095520 341.68058014 13.02809906 -1 2 0 
190 4 1 -1.00000000 129.10000610 -307.67010498 340.35855865 9.69263268 -1 2 0 
191 4 1 -1.00000000 129.10000610 -306.72157288 336.89115906 7.90768147 -1 2 0 
192 4 2 1.00000000 128.19999695 -305.71438599 333.06728363 7.50717211 -1 2 0 
193 4 1 -1.00000000 129.10000610 -302.82659912 332.28815460 10.06271839 -1 2 0 
194 4 2 1.00000000 128.19999695 -301.23854065 330.50959778 13.03412342 -1 2 0 
195 4 2 1.00000000 128.19999695 -298.38610077 328.11404419 14.07343578 -1 2 0 
196 4 2 1.00000000 128.19999695 -294.87020111 326.79484558 13.53347588 -1 2 0 
197 4 1 -1.00000000 129.10000610 -292.97264862 323.95004272 15.47361851 -1 2 0 
198 4 2 1.00000000 128.19999695 -292.29910278 322.80675507 19.21433640 -1 2 0 
199 4 1 -1.00000000 129.10000610 -289.78183746 319.66909790 19.14667320 -1 2 0 
200 4 2 1.00000000 128.19999695 -288.07692719 319.00691986 22.34579277 -1 2 0 
201 5 2 1.00000000 128.19999695 -352.33955002 -218.60267258 -253.38253021 -2 -1 -1 
202 5 1 -1.00000000 129.10000610 -348.99373627 -218.18752289 -251.49052811 -2 -1 -1 
203 5 2 1.00000000 128.19999695 -346.63233948 -217.85016918 -248.37464142 -2 -1 -1 
204 5 2 1.00000000 128.19999695 -347.22417450 -219.90267372 -245.29333496 -2 -1 -1 
205 5 2 1.00000000 128.19999695 -349.74334717 -223.02360153 -244.72251892 -2 -1 -1 
206 5 1 -1.00000000 129.10000610 -349.06224060 -224.96100426 -247.93343735 -2 -1 -1 
207 5 2 1.00000000 128.19999695 -351.13169479 -227.78899384 -249.05530930 -2 -1 -1 
208 5 1 -1.00000000 129.10000610 -353.54974365 -227.92450905 -245.99895096 -2 -1 -1 
209 5 1 -1.00000000 129.10000610 -357.12059784 -228.48481941 -245.91435242 -2 -1 -1 
210 5 1 -1.00000000 129.10000610 -359.98850632 -228.64185143 -243.31896591 -2 -1 -1 
211 5 2 1.00000000 128.19999695 -363.60335159 -229.49149132 -244.33543396 -2 -1 -1 
212 5 1 -1.00000000 129.10000610 -366.20684052 -228.35854530 -246.75089264 -2 -1 -1 
213 5 1 -1.00000000 129.10000610 -368.75754547 -230.77612495 -248.60366440 -2 -1 -1 
214 5 1 -1.00000000 129.10000610 -369.36667633 -233.42404175 -245.63394928 -2 -1 -1 
215 5 2 1.00000000 128.19999695 -371.71873856 -231.38529587 -243.47784424 -2 -1 -1 
216 5 2 1.00000000 128.19999695 -373.92127991 -231.92792702 -240.46095657 -2 -1 -1 
217 5 1 -1.00000000 129.10000610 -377.13528061 -230.08313560 -239.82151413 -2 -1 -1 
218 5 1 -1.00000000 129.10000610 -376.46009827 -226.40964508 -241.31513214 -2 -1 -1 
219 5 2 1.00000000 128.19999695 -374.66480637 -225.15590286 -244.56802750 -2 -1 -1 
220 5 1 -1.00000000 129.10000610 -373.83213043 -222.50464535 -247.33118057 -2 -1 -1 
221 5 1 -1.00000000 129.10000610 -376.20559692 -222.53974152 -250.15725327 -2 -1 -1 
222 5 1 -1.00000000 129.10000610 -379.85236740 -222.99412918 -252.12450027 -2 -1 -1 
223 5 2 1.00000000 128.19999695 -382.08163071 -220.51323032 -254.55564499 -2 -1 -1 
224 5 1 -1.00000000 129.10000610 -383.89101028 -223.56188583 -256.31285858 -2 -1 -1 
225 5 1 -1.00000000 129.10000610 -382.74040985 -225.95019341 -259.38128281 -2 -1 -1 
226 5 2 1.00000000 128.19999695 -380.19316483 -228.59442139 -259.25137329 -2 -1 -1 
227 5 2 1.00000000 128.19999695 -377.31924820 -227.79508209 -256.57488632 -2 -1 -1 
228 5 2 1.00000000 128.19999695 -375.56594467 -229.79870605 -254.24434662 -2 -1 -1 
229 5 2 1.00000000 128.19999695 -372.97268295 -232.51234818 -254.31703186 -2 -1 -1 
230 5 2 1.00000000 128.19999695 -371.92083359 -236.16402626 -253.77487946 -2 -1 -1 
231 5 1 -1.00000000 129.10000610 -373.42115021 -236.52762794 -249.90286255 -2 -1 -1 
232 5 1 -1.00000000 129.10000610 -371.27300262 -239.39291382 -248.51618576 -2 -1 -1 
233 5 1 -1.00000000 129.10000610 -369.98618317 -240.12678146 -244.92060471 -2 -1 -1 
234 5 2 1.00000000 128.19999695 -370.46053696 -240.92631912 -241.08310318 -2 -1 -1 
235 5 2 1.00000000 128.19999695 -373.01948929 -240.58451080 -237.87258530 -2 -1 -1 
236 5 2 1.00000000 128.19999695 -373.09175491 -242.50610352 -234.65714264 -2 -1 -1 
237 5 1 -1.00000000 129.10000610 -376.58932495 -244.14020538 -233.69326401 -2 -1 -1 
238 5 2 1.00000000 128.19999695 -378.52996063 -246.46525192 -231.42497635 -2 -1 -1 
239 5 1 -1.00000000 129.10000610 -379.20919037 -248.91922379 -228.63682365 -2 -1 -1 
240 5 1 -1.00000000 129.10000610 -379.25842667 -251.20117569 -225.89241409 -2 -1 -1 
241 5 1 -1.00000000 129.10000610 -382.35511017 -253.26081085 -224.62155151 -2 -1 -1 
242 5 2 1.00000000 128.19999695 -385.13717842 -253.85856628 -222.31458187 -2 -1 -1 
243 5 1 -1.00000000 129.10000610 -386.10981369 -250.03707886 -221.87695312 -2 -1 -1 
244 5 2 1.00000000 128.19999695 -385.66652298 -247.43270111 -224.51888275 -2 -1 -1 
245 5 2 1.00000000 128.19999695 -385.71574020 -243.54984283 -224.04326248 -2 -1 -1 
246 5 2 1.00000000 128.19999695 -385.96711159 -239.52701950 -223.96621895 -2 -1 -1 
247 5 1 -1.00000000 129.10000610 -388.07549286 -237.49473763 -226.22011185 -2 -1 -1 
248 5 2 1.00000000 128.19999695 -388.28691101 -235.42769051 -229.18895531 -2 -1 -1 
249 5 1 -1.00000000 129.10000610 -391.65112305 -233.95045471 -230.35803413 -2 -1 -1 
250 5 2 1.00000000 128.19999695 -392.82864380 -235.17448425 -233.81138420 -2 -1 -1 
251 6 2 1.00000000 128.19999695 465.76818085 -470.18567657 -146.97798538 2 -2 -1 
252 6 1 -1.00000000 129.10000610 464.32041168 -467.92201233 -144.25124741 2 -2 -1 
253 6 2 1.00000000 128.19999695 462.27834702 -464.89905548 -143.13959503 2 -2 -1 
254 6 2 1.00000000 128.19999695 464.20623398 -461.47703934 -143.14533234 2 -2 -1 
255 6 2 1.00000000 128.19999695 466.47009659 -458.09403229 -142.98169708 2 -2 -1 
256 6 1 -1.00000000 129.10000610 469.18716049 -457.61919022 -140.23632812 2 -2 -1 
257 6 2 1.00000000 128.19999695 472.81513214 -456.62449265 -138.21552277 2 -2 -1 
258 6 1 -1.00000000 129.10000610 474.72842407 -460.26334000 -138.07426453 2 -2 -1 
259 6 1 -1.00000000 129.10000610 473.70428467 -462.51402664 -140.83168793 2 -2 -1 
260 6 1 -1.00000000 129.10000610 471.07836533 -464.26689911 -142.84774017 2 -2 -1 
261 6 2 1.00000000 128.19999695 472.04213715 -466.05613708 -146.53549194 2 -2 -1 
262 6 1 -1.00000000 129.10000610 474.33082962 -462.87576675 -147.61589813 2 -2 -1 
263 6 1 -1.00000000 129.10000610 474.93117523 -460.74805832 -150.78833008 2 -2 -1 
264 6 1 -1.00000000 129.10000610 477.09728241 -463.66546631 -152.09613037 2 -2 -1 
265 6 2 1.00000000 128.19999695 476.83604813 -467.06364059 -153.83293915 2 -2 -1 
266 6 2 1.00000000 128.19999695 474.29571533 -469.37001419 -152.05430603 2 -2 -1 
267 6 1 -1.00000000 129.10000610 470.37761688 -469.17806244 -151.31762695 2 -2 -1 
268 6 1 -1.00000000 129.10000610 467.64049149 -471.39052200 -152.66904831 2 -2 -1 
269 6 2 1.00000000 128.19999695 466.54534912 -473.74477768 -155.66415024 2 -2 -1 
270 6 1 -1.00000000 129.10000610 468.73272324 -475.43767929 -158.68797302 2 -2 -1 
271 6 1 -1.00000000 129.10000610 470.23315048 -478.91978455 -158.31982803 2 -2 -1 
272 6 1 -1.00000000 129.10000610 469.77743149 -480.12677765 -154.86271286 2 -2 -1 
273 6 2 1.00000000 128.19999695 469.61529922 -482.46188354 -151.93428040 2 -2 -1 
274 6 1 -1.00000000 129.10000610 468.69371414 -485.45726013 -150.67033768 2 -2 -1 
275 6 1 -1.00000000 129.10000610 468.91683578 -486.80262756 -147.10443497 2 -2 -1 
276 6 2 1.00000000 128.19999695 471.68240356 -489.58439636 -145.76802826 2 -2 -1 
277 6 2 1.00000000 128.19999695 471.92831421 -493.37239838 -145.22644043 2 -2 -1 
278 6 2 1.00000000 128.19999695 475.69147110 -494.74028778 -146.26103210 2 -2 -1 
279 6 2 1.00000000 128.19999695 478.94145203 -494.92596436 -148.41348267 2 -2 -1 
280 6 2 1.00000000 128.19999695 479.79903412 -490.99971008 -148.20061874 2 -2 -1 
281 6 1 -1.00000000 129.10000610 478.19624329 -489.57247162 -145.17649460 2 -2 -1 
282 6 1 -1.00000000 129.10000610 479.43784332 -489.88999939 -141.71077728 2 -2 -1 
283 6 1 -1.00000000 129.10000610 477.50992203 -493.04167175 -140.34249878 2 -2 -1 
284 6 2 1.00000000 128.19999695 474.73719406 -492.47371674 -137.81765747 2 -2 -1 
285 6 2 1.00000000 128.19999695 474.02016449 -489.87436676 -134.87837982 2 -2 -1 
286 6 2 1.00000000 128.19999695 472.56006241 -486.49716949 -133.59643555 2 -2 -1 
287 6 1 -1.00000000 129.10000610 469.46033478 -484.67599487 -135.14535522 2 -2 -1 
288 6 2 1.00000000 128.19999695 466.58021545 -482.89878082 -136.22013855 2 -2 -1 
289 6 1 -1.00000000 129.10000610 465.96889496 -479.05171204 -136.55022430 2 -2 -1 
290 6 1 -1.00000000 129.10000610 464.76410675 -479.01250458 -140.41153717 2 -2 -1 
291 6 1 -1.00000000 129.10000610 464.96909714 -475.29800034 -141.23676300 2 -2 -1 
292 6 2 1.00000000 128.19999695 467.11226654 -472.14794922 -139.64242554 2 -2 -1 
293 6 1 -1.00000000 129.10000610 470.79959488 -472.08517838 -140.82629395 2 -2 -1 
294 6 2 1.00000000 128.19999695 474.18353653 -472.98456955 -138.81564331 2 -2 -1 
295 6 2 1.00000000 128.19999695 475.75453568 -469.72327042 -140.14881897 2 -2 -1 
296 6 2 1.00000000 128.19999695 477.98529434 -469.24384689 -143.05891418 2 -2 -1 
297 6 1 -1.00000000 129.10000610 479.12236786 -471.07231522 -146.03692627 2 -2 -1 
298 6 2 1.00000000 128.19999695 480.82081604 -474.51642227 -145.29056168 2 -2 -1 
299 6 1 -1.00000000 129.10000610 483.46757507 -473.29123306 -142.92083740 2 -2 -1 
300 6 2 1.00000000 128.19999695 484.89949799 -473.02929306 -139.26368713 2 -2 -1 
301 7 2 1.00000000 128.19999695 9.00510883 -35.21812057 -783.84175110 0 0 -4 
302 7 1 -1.00000000 129.10000610 12.44114494 -36.82519913 -784.45543671 0 0 -4 
303 7 2 1.00000000 128.19999695 16.18060684 -36.17541885 -783.70975494 0 0 -4 
304 7 2 1.00000000 128.19999695 17.19431877 -34.99999237 -779.69796371 0 0 -4 
305 7 2 1.00000000 128.19999695 15.91179085 -31.67037582 -779.05118179 0 0 -4 
306 7 1 -1.00000000 129.10000610 12.79070091 -29.58764267 -777.51001740 0 0 -4 
307 7 2 1.00000000 128.19999695 9.06326199 -30.56741714 -778.07859039 0 0 -4 
308 7 1 -1.00000000 129.10000610 5.29523897 -31.57177734 -777.35327148 0 0 -4 
309 7 1 -1.00000000 129.10000610 2.42762661 -32.52022552 -779.59237671 0 0 -4 
310 7 1 -1.00000000 129.10000610 -0.30701473 -35.24082947 -780.20127487 0 0 -4 
311 7 2 1.00000000 128.19999695 -2.95890594 -35.42609787 -777.13934708 0 0 -4 
312 7 1 -1.00000000 129.10000610 -3.34439921 -33.00410461 -774.38836288 0 0 -4 
313 7 1 -1.00000000 129.10000610 -6.60468149 -31.28696632 -773.62697983 0 0 -4 
314 7 1 -1.00000000 129.10000610 -10.57125854 -31.59770393 -773.33383560 0 0 -4 
315 7 2 1.00000000 128.19999695 -13.69519520 -32.38441086 -771.76488876 0 0 -4 
316 7 2 1.00000000 128.19999695 -16.06683540 -31.70009041 -768.51000214 0 0 -4 
317 7 1 -1.00000000 129.10000610 -16.81564140 -34.90906525 -767.71959686 0 0 -4 
318 7 1 -1.00000000 129.10000610 -19.65319443 -37.14381790 -769.24481583 0 0 -4 
319 7 2 1.00000000 128.19999695 -22.35870934 -34.93868256 -771.21083069 0 0 -4 
320 7 1 -1.00000000 129.10000610 -22.39504814 -36.38005447 -774.92982101 0 0 -4 
321 7 1 -1.00000000 129.10000610 -25.08025932 -38.69791412 -777.09062958 0 0 -4 
322 7 1 -1.00000000 129.10000610 -26.17667961 -42.05585861 -775.47180176 0 0 -4 
323 7 2 1.00000000 128.19999695 -24.21818733 -43.91136169 -772.78778839 0 0 -4 
324 7 1 -1.00000000 129.10000610 -21.08375168 -46.04291153 -772.40389633 0 0 -4 
325 7 1 -1.00000000 129.10000610 -20.87981987 -49.61969376 -774.02765656 0 0 -4 
326 7 2 1.00000000 128.19999695 -19.01465225 -50.62574005 -777.45933151 0 0 -4 
327 7 2 1.00000000 128.19999695 -15.41268826 -50.27801132 -776.27283096 0 0 -4 
328 7 2 1.00000000 128.19999695 -12.14126778 -48.24229050 -776.88266373 0 0 -4 
329 7 2 1.00000000 128.19999695 -11.32905388 -44.68487549 -776.88857269 0 0 -4 
330 7 2 1.00000000 128.19999695 -10.02461815 -43.80833054 -780.33719254 0 0 -4 
331 7 1 -1.00000000 129.10000610 -9.95043564 -41.61302185 -783.40135956 0 0 -4 
332 7 1 -1.00000000 129.10000610 -6.17242289 -41.24810410 -784.05599213 0 0 -4 
333 7 1 -1.00000000 129.10000610 -3.63641691 -43.42880249 -782.00251007 0 0 -4 
334 7 2 1.00000000 128.19999695 -1.32204425 -46.35698318 -781.90195084 0 0 -4 
335 7 2 1.00000000 128.19999695 0.11362424 -48.02064133 -778.82225418 0 0 -4 
336 7 2 1.00000000 128.19999695 -2.66597962 -49.68253326 -776.91786575 0 0 -4 
337 7 1 -1.00000000 129.10000610 -5.35417652 -51.19226837 -778.95817566 0 0 -4 
338 7 2 1.00000000 128.19999695 -6.82210827 -51.17485046 -782.44411087 0 0 -4 
339 7 1 -1.00000000 129.10000610 -9.32088280 -53.75409698 -781.74540710 0 0 -4 
340 7 1 -1.00000000 129.10000610 -10.86460876 -56.07545471 -779.08499527 0 0 -4 
341 7 1 -1.00000000 129.10000610 -11.52215672 -58.13896561 -776.06718445 0 0 -4 
342 7 2 1.00000000 128.19999695 -14.47008324 -56.67578506 -773.68358612 0 0 -4 
343 7 1 -1.00000000 129.10000610 -17.77402115 -58.74795914 -773.12667465 0 0 -4 
344 7 2 1.00000000 128.19999695 -16.52806282 -60.51225662 -769.75756454 0 0 -4 
345 7 2 1.00000000 128.19999695 -13.11775875 -61.77573013 -768.35559082 0 0 -4 
346 7 2 1.00000000 128.19999695 -10.40179729 -59.16706085 -769.28904343 0 0 -4 
347 7 1 -1.00000000 129.10000610 -8.40333557 -55.71109390 -769.29168701 0 0 -4 
348 7 2 1.00000000 128.19999695 -5.04360199 -54.69884872 -771.08660889 0 0 -4 
349 7 1 -1.00000000 129.10000610 -1.25436842 -55.63936234 -771.36207199 0 0 -4 
350 7 2 1.00000000 128.19999695 0.64148039 -55.40288544 -774.60776520 0 0 -4 
351 8 2 1.00000000 128.19999695 19.72192192 -248.29768372 648.09712219 0 -1 3 
352 8 1 -1.00000000 129.10000610 21.49652100 -251.12044907 650.48679543 0 -1 3 
353 8 2 1.00000000 128.19999695 21.96322632 -254.95519257 649.76771355 0 -1 3 
354 8 2 1.00000000 128.19999695 25.31620026 -255.59194565 647.82847214 0 -1 3 
355 8 2 1.00000000 128.19999695 27.39369774 -253.02926636 646.05399132 0 -1 3 
356 8 1 -1.00000000 129.10000610 30.12167931 -250.34597778 645.09043694 0 -1 3 
357 8 2 1.00000000 128.19999695 29.95673370 -248.68863297 641.75375938 0 -1 3 
358 8 1 -1.00000000 129.10000610 26.18645668 -249.31571960 641.24090004 0 -1 3 
359 8 1 -1.00000000 129.10000610 23.38908195 -246.79566956 641.85207939 0 -1 3 
360 8 1 -1.00000000 129.10000610 20.20474052 -245.03041458 640.95120049 0 -1 3 
361 8 2 1.00000000 128.19999695 18.47170639 -241.50329971 640.26904106 0 -1 3 
362 8 1 -1.00000000 129.10000610 21.53986740 -239.78628922 638.56447983 0 -1 3 
363 8 1 -1.00000000 129.10000610 24.79635048 -241.30796051 638.49123764 0 -1 3 
364 8 1 -1.00000000 129.10000610 27.91630173 -241.91045380 640.20091629 0 -1 3 
365 8 2 1.00000000 128.19999695 29.12845612 -240.06558990 643.23657799 0 -1 3 
366 8 2 1.00000000 128.19999695 29.37764549 -236.44330978 644.74883270 0 -1 3 
367 8 1 -1.00000000 129.10000610 28.37662888 -233.44264412 642.17020988 0 -1 3 