ITEM: TIMESTEP
44800000 
ITEM: NUMBER OF ATOMS 
25000 
ITEM: BOX BOUNDS pp pp pp 
-103.678017 103.678017 
-103.678017 103.678017 
-103.678017 103.678017 
ITEM: ATOMS id mol type q mass xu yu zu ix iy iz 
1 1 2 1.00000000 128.19999695 589.44427872 -162.67402267 -226.89901924 3 -1 -1 
2 1 1 -1.00000000 129.10000610 586.19676590 -161.23427200 -227.31404686 3 -1 -1 
3 1 2 1.00000000 128.19999695 583.80160904 -158.68793869 -225.86766243 3 -1 -1 
4 1 2 1.00000000 128.19999695 581.27057648 -157.26578903 -223.15987396 3 -1 -1 
5 1 2 1.00000000 128.19999695 578.31376648 -157.93392944 -220.94719315 3 -1 -1 
6 1 1 -1.00000000 129.10000610 575.59231949 -160.08351517 -219.14211750 3 -1 -1 
7 1 2 1.00000000 128.19999695 572.49916458 -161.48953629 -217.45014477 3 -1 -1 
8 1 1 -1.00000000 129.10000610 570.11790085 -158.40999603 -217.91506672 3 -1 -1 
9 1 1 -1.00000000 129.10000610 571.73683167 -155.79034424 -219.62801647 3 -1 -1 
10 1 1 -1.00000000 129.10000610 573.69308090 -152.72916031 -221.77268219 3 -1 -1 
11 1 2 1.00000000 128.19999695 571.77803802 -149.88865662 -220.41676617 3 -1 -1 
12 1 1 -1.00000000 129.10000610 570.89264297 -146.80381012 -222.22297764 3 -1 -1 
13 1 1 -1.00000000 129.10000610 568.65483856 -144.54016113 -224.19414330 3 -1 -1 
14 1 1 -1.00000000 129.10000610 569.55833817 -146.31252289 -227.72415733 3 -1 -1 
15 1 2 1.00000000 128.19999695 569.09129333 -144.60754395 -231.10229874 3 -1 -1 
16 1 2 1.00000000 128.19999695 570.55788040 -146.64058685 -234.12736893 3 -1 -1 
17 1 1 -1.00000000 129.10000610 571.78128052 -145.94981766 -237.51001740 3 -1 -1 
18 1 1 -1.00000000 129.10000610 573.66776657 -148.38704300 -239.12609863 3 -1 -1 
19 1 2 1.00000000 128.19999695 576.95179749 -150.34308624 -238.77564240 3 -1 -1 
20 1 1 -1.00000000 129.10000610 579.32352448 -150.17170334 -235.46028328 3 -1 -1 
21 1 1 -1.00000000 129.10000610 579.15188599 -153.26918793 -233.03948975 3 -1 -1 
22 1 1 -1.00000000 129.10000610 576.30456543 -155.79335022 -231.95208168 3 -1 -1 
23 1 2 1.00000000 128.19999695 574.91016769 -157.99066925 -235.02393150 3 -1 -1 
24 1 1 -1.00000000 129.10000610 574.11323547 -161.53203964 -235.58535004 3 -1 -1 
25 1 1 -1.00000000 129.10000610 571.41740036 -162.95501709 -237.53774452 3 -1 -1 
26 1 2 1.00000000 128.19999695 571.82922363 -165.39613724 -240.45654297 3 -1 -1 
27 1 2 1.00000000 128.19999695 568.48019028 -166.91469955 -242.26855469 3 -1 -1 
28 1 2 1.00000000 128.19999695 565.85472107 -167.94648361 -240.22390366 3 -1 -1 
29 1 2 1.00000000 128.19999695 564.80982208 -170.94828415 -237.51217842 3 -1 -1 
30 1 2 1.00000000 128.19999695 564.26836014 -174.56226730 -238.36707687 3 -1 -1 
31 1 1 -1.00000000 129.10000610 561.59954453 -176.61725998 -240.02740860 3 -1 -1 
32 1 1 -1.00000000 129.10000610 562.73444748 -179.69022369 -241.76210022 3 -1 -1 
33 1 1 -1.00000000 129.10000610 564.47772217 -183.21419716 -241.94014359 3 -1 -1 
34 1 2 1.00000000 128.19999695 566.91714478 -185.96272278 -241.65748596 3 -1 -1 
35 1 2 1.00000000 128.19999695 570.10609818 -187.50521278 -240.00269699 3 -1 -1 
36 1 2 1.00000000 128.19999695 572.63659668 -189.87239456 -238.92307663 3 -1 -1 
37 1 1 -1.00000000 129.10000610 573.51282883 -192.49544334 -241.65153122 3 -1 -1 
38 1 2 1.00000000 128.19999695 575.52383804 -193.91344070 -244.13532257 3 -1 -1 
39 1 1 -1.00000000 129.10000610 578.45822525 -196.18639946 -244.11679077 3 -1 -1 
40 1 1 -1.00000000 129.10000610 581.56270599 -197.82331371 -243.30380630 3 -1 -1 
41 1 1 -1.00000000 129.10000610 581.47318649 -201.13725901 -242.32330322 3 -1 -1 
42 1 2 1.00000000 128.19999695 578.40985489 -201.51508856 -240.03218460 3 -1 -1 
43 1 1 -1.00000000 129.10000610 574.84861374 -200.79053354 -241.30501556 3 -1 -1 
44 1 2 1.00000000 128.19999695 573.10476685 -201.87786245 -244.98349762 3 -1 -1 
45 1 2 1.00000000 128.19999695 574.97225952 -200.66561317 -248.03482056 3 -1 -1 
46 1 2 1.00000000 128.19999695 578.56194305 -200.99570227 -248.25362396 3 -1 -1 
47 1 1 -1.00000000 129.10000610 579.03170776 -205.13624835 -248.02305603 3 -1 -1 
48 1 2 1.00000000 128.19999695 580.74361420 -206.60738599 -245.26871872 3 -1 -1 
49 1 1 -1.00000000 129.10000610 584.52279282 -206.12687683 -244.90950775 3 -1 -1 
50 1 2 1.00000000 128.19999695 585.97320175 -207.39440200 -241.33548737 3 -1 -1 
51 2 2 1.00000000 128.19999695 540.30308533 349.36967468 -277.83612823 3 2 -1 
52 2 1 -1.00000000 129.10000610 539.33332062 345.93099213 -276.31218719 3 2 -1 
53 2 2 1.00000000 128.19999695 535.63526154 344.62973785 -275.78556061 3 2 -1 
54 2 2 1.00000000 128.19999695 531.92255402 344.07910156 -275.77160645 3 2 -1 
55 2 2 1.00000000 128.19999695 530.07328033 345.93182373 -278.84077454 3 2 -1 
56 2 1 -1.00000000 129.10000610 531.53092957 346.02584076 -282.31410217 3 2 -1 
57 2 2 1.00000000 128.19999695 535.27400970 347.04949951 -282.07944489 3 2 -1 
58 2 1 -1.00000000 129.10000610 537.38575745 344.09114075 -282.26631927 3 2 -1 
59 2 1 -1.00000000 129.10000610 540.99273682 343.25713348 -281.48777008 3 2 -1 
60 2 1 -1.00000000 129.10000610 541.14167786 340.62995911 -278.57953644 3 2 -1 
61 2 2 1.00000000 128.19999695 542.22153473 339.95915985 -274.91699982 3 2 -1 
62 2 1 -1.00000000 129.10000610 544.88822937 337.39482117 -273.99827576 3 2 -1 
63 2 1 -1.00000000 129.10000610 547.39595032 334.71066284 -273.26952362 3 2 -1 
64 2 1 -1.00000000 129.10000610 551.26462555 335.31089020 -272.10355377 3 2 -1 
65 2 2 1.00000000 128.19999695 554.25665283 332.87397766 -272.69883728 3 2 -1 
66 2 2 1.00000000 128.19999695 557.73798370 332.25068665 -271.69045258 3 2 -1 
67 2 1 -1.00000000 129.10000610 559.37564850 335.65246582 -271.14706039 3 2 -1 
68 2 1 -1.00000000 129.10000610 560.89949036 338.96208954 -269.72097778 3 2 -1 
69 2 2 1.00000000 128.19999695 561.21199417 341.92854309 -271.88647461 3 2 -1 
70 2 1 -1.00000000 129.10000610 559.47044373 342.37279510 -275.16598511 3 2 -1 
71 2 1 -1.00000000 129.10000610 559.16612244 345.92060089 -275.72018433 3 2 -1 
72 2 1 -1.00000000 129.10000610 561.93468094 345.88500214 -278.47339630 3 2 -1 
73 2 2 1.00000000 128.19999695 565.36888504 343.86723328 -278.71177673 3 2 -1 
74 2 1 -1.00000000 129.10000610 567.13672256 343.96913147 -281.98954773 3 2 -1 
75 2 1 -1.00000000 129.10000610 565.48030090 342.65666962 -285.05123901 3 2 -1 
76 2 2 1.00000000 128.19999695 566.66169357 344.92943573 -287.89819336 3 2 -1 
77 2 2 1.00000000 128.19999695 566.20715332 342.97053528 -291.38125610 3 2 -1 
78 2 2 1.00000000 128.19999695 563.59575272 342.30338287 -293.98632812 3 2 -1 
79 2 2 1.00000000 128.19999695 562.04892349 344.03813171 -297.04282379 3 2 -1 
80 2 2 1.00000000 128.19999695 560.44953537 347.07478333 -296.42312622 3 2 -1 
81 2 1 -1.00000000 129.10000610 562.16218567 350.60667419 -296.45498657 3 2 -1 
82 2 1 -1.00000000 129.10000610 565.50062561 352.45343018 -296.16093445 3 2 -1 
83 2 1 -1.00000000 129.10000610 569.01231766 353.53917313 -297.33496857 3 2 -1 
84 2 2 1.00000000 128.19999695 571.46408463 352.88050842 -294.78353119 3 2 -1 
85 2 2 1.00000000 128.19999695 575.03314972 352.73563004 -295.62696075 3 2 -1 
86 2 2 1.00000000 128.19999695 576.44155121 355.50997925 -297.59162140 3 2 -1 
87 2 1 -1.00000000 129.10000610 574.19123459 357.07086563 -300.71533203 3 2 -1 
88 2 2 1.00000000 128.19999695 573.29472733 361.00244522 -299.93017578 3 2 -1 
89 2 1 -1.00000000 129.10000610 573.96805954 364.66305542 -301.09571075 3 2 -1 
90 2 1 -1.00000000 129.10000610 573.17838287 367.58469009 -303.17343903 3 2 -1 
91 2 1 -1.00000000 129.10000610 576.31856155 369.92972183 -302.99919891 3 2 -1 
92 2 2 1.00000000 128.19999695 576.61166000 371.85697937 -299.90756226 3 2 -1 
93 2 1 -1.00000000 129.10000610 575.86404800 374.45929718 -297.24259949 3 2 -1 
94 2 2 1.00000000 128.19999695 578.36199188 377.19704819 -297.69113159 3 2 -1 
95 2 2 1.00000000 128.19999695 580.16861725 380.43639755 -296.92318726 3 2 -1 
96 2 2 1.00000000 128.19999695 580.50185776 384.29045677 -297.03130341 3 2 -1 
97 2 1 -1.00000000 129.10000610 580.65451431 384.98564339 -293.37400055 3 2 -1 
98 2 2 1.00000000 128.19999695 580.12823105 383.21068764 -289.97347260 3 2 -1 
99 2 1 -1.00000000 129.10000610 580.09189606 386.59024429 -288.40807343 3 2 -1 
100 2 2 1.00000000 128.19999695 579.90162277 390.43021011 -287.77602386 3 2 -1 
101 3 2 1.00000000 128.19999695 299.44923401 -130.90010071 69.72856140 1 -1 0 
102 3 1 -1.00000000 129.10000610 300.95502472 -129.97207642 73.05950928 1 -1 0 
103 3 2 1.00000000 128.19999695 303.63220215 -127.68347931 74.84012604 1 -1 0 
104 3 2 1.00000000 128.19999695 304.86381531 -124.28847504 76.32755280 1 -1 0 
105 3 2 1.00000000 128.19999695 304.95065308 -121.38977051 78.96987152 1 -1 0 
106 3 1 -1.00000000 129.10000610 306.56525421 -118.23041534 79.75380707 1 -1 0 
107 3 2 1.00000000 128.19999695 309.86185455 -118.87425995 77.87150574 1 -1 0 
108 3 1 -1.00000000 129.10000610 312.31024170 -121.06072235 75.70500946 2 -1 0 
109 3 1 -1.00000000 129.10000610 315.67762756 -120.03978729 74.19291687 2 -1 0 
110 3 1 -1.00000000 129.10000610 318.65081024 -117.65136719 75.16857147 2 -1 0 
111 3 2 1.00000000 128.19999695 322.00385284 -117.05845642 76.87313080 2 -1 0 
112 3 1 -1.00000000 129.10000610 325.43194580 -115.30829620 78.40254974 2 -1 0 
113 3 1 -1.00000000 129.10000610 327.09226227 -112.90506744 80.81603241 2 -1 0 
114 3 1 -1.00000000 129.10000610 330.73093414 -112.09046173 80.65577698 2 -1 0 
115 3 2 1.00000000 128.19999695 332.20629883 -108.23741913 81.19244385 2 -1 0 
116 3 2 1.00000000 128.19999695 333.87346649 -104.94730377 79.60723877 2 -1 0 
117 3 1 -1.00000000 129.10000610 335.45082092 -102.80020142 82.28170013 2 0 0 
118 3 1 -1.00000000 129.10000610 338.80464935 -103.58768463 84.50101471 2 0 0 
119 3 2 1.00000000 128.19999695 340.46395874 -106.27069855 86.07189178 2 -1 0 
120 3 1 -1.00000000 129.10000610 339.27333069 -109.72054291 85.38577271 2 -1 0 
121 3 1 -1.00000000 129.10000610 336.90577698 -111.89897919 83.84559631 2 -1 0 
122 3 1 -1.00000000 129.10000610 335.98036957 -114.32538605 86.85963440 2 -1 0 
123 3 2 1.00000000 128.19999695 334.05313110 -115.91728973 89.43633270 2 -1 0 
124 3 1 -1.00000000 129.10000610 336.25009155 -117.43481445 92.02903748 2 -1 0 
125 3 1 -1.00000000 129.10000610 335.56320953 -117.08444977 96.00422668 2 -1 0 
126 3 2 1.00000000 128.19999695 336.43006134 -119.15786743 99.08748627 2 -1 0 
127 3 2 1.00000000 128.19999695 332.73550415 -120.74291229 99.84687805 2 -1 0 
128 3 2 1.00000000 128.19999695 330.78189087 -121.85356903 96.88024139 2 -1 0 
129 3 2 1.00000000 128.19999695 329.04613495 -125.39791870 96.53638458 2 -1 0 
130 3 2 1.00000000 128.19999695 329.45954132 -127.24559021 93.28263855 2 -1 0 
131 3 1 -1.00000000 129.10000610 330.19657135 -127.25529480 89.73391724 2 -1 0 
132 3 1 -1.00000000 129.10000610 332.79625702 -124.52692413 88.59635925 2 -1 0 
133 3 1 -1.00000000 129.10000610 334.41945648 -121.56751251 86.92321014 2 -1 0 
134 3 2 1.00000000 128.19999695 335.63522339 -121.08486176 83.42548370 2 -1 0 
135 3 2 1.00000000 128.19999695 337.23320770 -122.13845062 79.86119843 2 -1 0 
136 3 2 1.00000000 128.19999695 337.97390747 -125.77131653 79.02426147 2 -1 0 
137 3 1 -1.00000000 129.10000610 335.13533783 -128.63112640 79.06439209 2 -1 0 
138 3 2 1.00000000 128.19999695 336.64527130 -132.05722046 77.87608337 2 -1 0 
139 3 1 -1.00000000 129.10000610 339.83193207 -132.27713013 79.84323120 2 -1 0 
140 3 1 -1.00000000 129.10000610 342.17114258 -135.42554474 80.16594696 2 -1 0 
141 3 1 -1.00000000 129.10000610 343.18119049 -136.98838806 76.84816742 2 -1 0 
142 3 2 1.00000000 128.19999695 341.46994781 -137.10871124 73.72460938 2 -1 0 
143 3 1 -1.00000000 129.10000610 340.49390411 -137.14087677 70.03771210 2 -1 0 
144 3 2 1.00000000 128.19999695 339.71917725 -136.84320068 66.46505737 2 -1 0 
145 3 2 1.00000000 128.19999695 338.56885529 -139.85591125 64.79433441 2 -1 0 
146 3 2 1.00000000 128.19999695 337.43341827 -143.63254547 64.67477417 2 -1 0 
147 3 1 -1.00000000 129.10000610 340.50166321 -145.43628311 65.88024902 2 -1 0 
148 3 2 1.00000000 128.19999695 342.81890869 -148.15333939 66.90757751 2 -1 0 
149 3 1 -1.00000000 129.10000610 343.95457458 -151.72229385 67.34226227 2 -1 0 
150 3 2 1.00000000 128.19999695 346.49085999 -154.72827148 67.44456482 2 -1 0 
151 4 2 1.00000000 128.19999695 -173.24393845 362.95656967 10.70255184 -1 2 0 
152 4 1 -1.00000000 129.10000610 -176.14168739 362.00402069 12.99645233 -1 2 0 
153 4 2 1.00000000 128.19999695 -179.44608498 360.11777496 12.89111996 -1 2 0 
154 4 2 1.00000000 128.19999695 -181.34295845 357.16916656 11.54248810 -1 2 0 
155 4 2 1.00000000 128.19999695 -183.87736511 355.65335083 14.12448597 -1 2 0 
156 4 1 -1.00000000 129.10000610 -183.93983841 352.71162033 16.48832703 -1 2 0 
157 4 2 1.00000000 128.19999695 -185.64405060 349.36078644 16.50985336 -1 2 0 
158 4 1 -1.00000000 129.10000610 -187.68205261 345.98482513 16.44136429 -1 2 0 
159 4 1 -1.00000000 129.10000610 -191.31576920 344.82528687 15.90019512 -1 2 0 
160 4 1 -1.00000000 129.10000610 -193.74116230 342.54197693 14.55718708 -1 2 0 
161 4 2 1.00000000 128.19999695 -192.94525719 339.04070282 12.87737274 -1 2 0 
162 4 1 -1.00000000 129.10000610 -195.96093941 337.01847839 10.55438519 -1 2 0 
163 4 1 -1.00000000 129.10000610 -196.81316662 334.95587921 7.32005978 -1 2 0 
164 4 1 -1.00000000 129.10000610 -194.91211987 336.80691528 4.73036003 -1 2 0 
165 4 2 1.00000000 128.19999695 -197.31085110 337.51598358 1.86657596 -1 2 0 
166 4 2 1.00000000 128.19999695 -200.70040035 338.04796600 3.45358682 -1 2 0 
167 4 1 -1.00000000 129.10000610 -203.38700461 339.30429077 5.71626663 -1 2 0 
168 4 1 -1.00000000 129.10000610 -206.99448195 339.36372375 7.00329828 -1 2 0 
169 4 2 1.00000000 128.19999695 -208.10202205 342.47308350 8.43325424 -1 2 0 
170 4 1 -1.00000000 129.10000610 -208.31183851 345.93221283 6.59030581 -1 2 0 
171 4 1 -1.00000000 129.10000610 -211.15704679 348.09410858 5.44073582 -1 2 0 
172 4 1 -1.00000000 129.10000610 -212.69162798 351.01259613 6.86313438 -1 2 0 
173 4 2 1.00000000 128.19999695 -216.60156059 350.33723450 6.71970558 -1 2 0 
174 4 1 -1.00000000 129.10000610 -219.98706341 350.87483215 4.40212584 -1 2 0 
175 4 1 -1.00000000 129.10000610 -223.28235817 352.87179184 3.33451986 -1 2 0 
176 4 2 1.00000000 128.19999695 -225.86142921 353.63590240 5.53011465 -1 2 0 
177 4 2 1.00000000 128.19999695 -226.86591339 357.43550873 6.49149466 -1 2 0 
178 4 2 1.00000000 128.19999695 -224.76413345 360.70097733 6.75240183 -1 2 0 
179 4 2 1.00000000 128.19999695 -224.96157837 362.69443893 3.76580906 -1 2 0 
180 4 2 1.00000000 128.19999695 -226.15400314 360.60267639 0.67313778 -1 2 0 
181 4 1 -1.00000000 129.10000610 -224.91325951 361.15632248 -2.79940295 -1 2 0 
182 4 1 -1.00000000 129.10000610 -221.09095097 360.90977097 -2.71398497 -1 2 0 
183 4 1 -1.00000000 129.10000610 -218.44039345 358.83552551 -4.18183565 -1 2 0 
184 4 2 1.00000000 128.19999695 -215.18904495 357.88790894 -5.96651363 -1 2 0 
185 4 2 1.00000000 128.19999695 -214.57913494 354.39609528 -4.94208813 -1 2 0 
186 4 2 1.00000000 128.19999695 -213.82673693 350.86851883 -4.13107634 -1 2 0 
187 4 1 -1.00000000 129.10000610 -213.21820545 347.51988983 -2.52231073 -1 2 0 
188 4 2 1.00000000 128.19999695 -212.54416943 344.82857513 0.00858881 -1 2 0 
189 4 1 -1.00000000 129.10000610 -210.69511175 341.85124969 -0.22155249 -1 2 0 
190 4 1 -1.00000000 129.10000610 -213.05377102 338.78710175 1.02626300 -1 2 0 
191 4 1 -1.00000000 129.10000610 -216.24390888 340.31732178 2.25988030 -1 2 0 
192 4 2 1.00000000 128.19999695 -217.35422421 342.76926422 5.07750988 -1 2 0 
193 4 1 -1.00000000 129.10000610 -219.92240334 342.34832764 7.66453123 -1 2 0 
194 4 2 1.00000000 128.19999695 -222.02624321 339.56297302 9.61690140 -1 2 0 
195 4 2 1.00000000 128.19999695 -222.77885628 336.69260406 11.42416477 -1 2 0 
196 4 2 1.00000000 128.19999695 -225.60473633 334.49627686 13.03364277 -1 2 0 
197 4 1 -1.00000000 129.10000610 -228.25078964 336.80363464 14.60559368 -1 2 0 
198 4 2 1.00000000 128.19999695 -226.55352592 340.01548767 14.73348427 -1 2 0 
199 4 1 -1.00000000 129.10000610 -223.37868118 340.52828217 16.79812431 -1 2 0 
200 4 2 1.00000000 128.19999695 -219.61138153 340.91880035 16.15220642 -1 2 0 
201 5 2 1.00000000 128.19999695 -240.44402313 -241.75920868 -264.28857040 -1 -1 -1 
202 5 1 -1.00000000 129.10000610 -238.20635223 -239.08333969 -262.23574829 -1 -1 -1 
203 5 2 1.00000000 128.19999695 -237.13786507 -239.12306786 -258.62606430 -1 -1 -1 
204 5 2 1.00000000 128.19999695 -235.63208961 -238.36086464 -255.68650055 -1 -1 -1 
205 5 2 1.00000000 128.19999695 -235.96343422 -237.37628746 -252.16356659 -1 -1 -1 
206 5 1 -1.00000000 129.10000610 -236.42617607 -240.57854843 -249.80091476 -1 -1 -1 
207 5 2 1.00000000 128.19999695 -239.49649429 -243.01517868 -248.89771652 -1 -1 -1 
208 5 1 -1.00000000 129.10000610 -238.77786255 -245.81357193 -246.50788116 -1 -1 -1 
209 5 1 -1.00000000 129.10000610 -236.40437889 -249.15743256 -247.33973312 -1 -1 -1 
210 5 1 -1.00000000 129.10000610 -238.59216690 -252.28820419 -246.30462265 -1 -1 -1 
211 5 2 1.00000000 128.19999695 -240.01452637 -254.39083099 -248.59746170 -1 -1 -1 
212 5 1 -1.00000000 129.10000610 -241.01173019 -254.32469940 -252.24509048 -1 -1 -1 
213 5 1 -1.00000000 129.10000610 -244.37479019 -255.48843384 -253.39148331 -1 -1 -1 
214 5 1 -1.00000000 129.10000610 -245.99306870 -256.33051300 -256.65782166 -1 -1 -1 
215 5 2 1.00000000 128.19999695 -247.69458008 -259.36334610 -258.09853363 -1 -1 -1 
216 5 2 1.00000000 128.19999695 -248.04356384 -261.28710175 -261.08766556 -1 -1 -1 
217 5 1 -1.00000000 129.10000610 -249.49180984 -264.77007294 -260.14317322 -1 -1 -1 
218 5 1 -1.00000000 129.10000610 -249.29567337 -265.33593369 -256.55091858 -1 -1 -1 
219 5 2 1.00000000 128.19999695 -245.46944427 -265.27552032 -255.28005600 -1 -1 -1 
220 5 1 -1.00000000 129.10000610 -244.23978806 -262.44081879 -252.91160583 -1 -1 -1 
221 5 1 -1.00000000 129.10000610 -242.33003616 -263.83531570 -249.86277390 -1 -1 -1 
222 5 1 -1.00000000 129.10000610 -239.07302666 -264.11001968 -247.66596985 -1 -1 -1 
223 5 2 1.00000000 128.19999695 -236.72271538 -266.33097839 -245.36714935 -1 -1 -1 
224 5 1 -1.00000000 129.10000610 -236.91460419 -265.83078003 -241.57011032 -1 -1 -1 
225 5 1 -1.00000000 129.10000610 -238.39942360 -269.60216141 -241.09112930 -1 -1 -1 
226 5 2 1.00000000 128.19999695 -242.04680634 -270.54621887 -242.21533966 -1 -1 -1 
227 5 2 1.00000000 128.19999695 -244.35955048 -268.34651947 -243.84119797 -1 -1 -1 
228 5 2 1.00000000 128.19999695 -243.61789322 -264.65423584 -244.02016068 -1 -1 -1 
229 5 2 1.00000000 128.19999695 -242.68226624 -262.04317093 -241.48691177 -1 -1 -1 
230 5 2 1.00000000 128.19999695 -241.49553299 -259.63816833 -238.75729179 -1 -1 -1 
231 5 1 -1.00000000 129.10000610 -244.88396835 -257.71897125 -238.03334427 -1 -1 -1 
232 5 1 -1.00000000 129.10000610 -248.38449860 -259.63858032 -237.91662788 -1 -1 -1 
233 5 1 -1.00000000 129.10000610 -249.78501892 -260.79804611 -241.43894196 -1 -1 -1 
234 5 2 1.00000000 128.19999695 -252.55497360 -263.23861313 -240.31730652 -1 -1 -1 
235 5 2 1.00000000 128.19999695 -253.29718018 -265.10968018 -243.45301056 -1 -1 -1 
236 5 2 1.00000000 128.19999695 -251.78309250 -268.09946060 -245.03654480 -1 -1 -1 
237 5 1 -1.00000000 129.10000610 -251.31856537 -267.04380417 -248.63612366 -1 -1 -1 
238 5 2 1.00000000 128.19999695 -252.22389603 -263.88333511 -250.69855881 -1 -1 -1 
239 5 1 -1.00000000 129.10000610 -254.40268707 -261.27420425 -248.82718277 -1 -1 -1 
240 5 1 -1.00000000 129.10000610 -257.92270279 -262.64390945 -250.20743942 -1 -1 -1 
241 5 1 -1.00000000 129.10000610 -259.95886230 -260.18189240 -251.62566757 -1 -1 -1 
242 5 2 1.00000000 128.19999695 -259.30162430 -256.26532745 -251.32419586 -1 -1 -1 
243 5 1 -1.00000000 129.10000610 -258.95627594 -252.44421768 -250.00416183 -1 -1 -1 
244 5 2 1.00000000 128.19999695 -261.56737900 -250.70223999 -247.49308777 -1 -1 -1 
245 5 2 1.00000000 128.19999695 -265.27638626 -250.57030487 -246.65715027 -1 -1 -1 
246 5 2 1.00000000 128.19999695 -268.89630127 -251.19001007 -247.93465424 -1 -1 -1 
247 5 1 -1.00000000 129.10000610 -269.83386993 -253.60094452 -250.73278809 -1 -1 -1 
248 5 2 1.00000000 128.19999695 -270.81846237 -257.42617416 -250.51267624 -1 -1 -1 
249 5 1 -1.00000000 129.10000610 -271.64414978 -260.81977844 -248.75660324 -1 -1 -1 
250 5 2 1.00000000 128.19999695 -273.13929749 -261.85320282 -245.41217041 -1 -1 -1 
251 6 2 1.00000000 128.19999695 529.94077301 -473.86188126 -128.37425995 3 -2 -1 
252 6 1 -1.00000000 129.10000610 526.74140930 -476.10673523 -127.79366302 3 -2 -1 
253 6 2 1.00000000 128.19999695 523.69711304 -476.16640472 -125.40122223 3 -2 -1 
254 6 2 1.00000000 128.19999695 522.25750732 -474.77070999 -122.22066498 3 -2 -1 
255 6 2 1.00000000 128.19999695 521.02524567 -474.43322372 -119.01989746 3 -2 -1 
256 6 1 -1.00000000 129.10000610 519.23791504 -470.83231735 -118.34061432 3 -2 -1 
257 6 2 1.00000000 128.19999695 517.45829010 -468.28479385 -120.38686371 2 -2 -1 
258 6 1 -1.00000000 129.10000610 514.54438019 -466.45919418 -121.69113159 2 -2 -1 
259 6 1 -1.00000000 129.10000610 513.32234192 -462.91528320 -122.55405426 2 -2 -1 
260 6 1 -1.00000000 129.10000610 513.12905121 -460.34516144 -119.44515991 2 -2 -1 
261 6 2 1.00000000 128.19999695 513.27075958 -460.49339294 -115.88282013 2 -2 -1 
262 6 1 -1.00000000 129.10000610 511.47834778 -458.57135391 -113.07312012 2 -2 -1 
263 6 1 -1.00000000 129.10000610 508.43571472 -455.98830032 -112.25380707 2 -2 -1 
264 6 1 -1.00000000 129.10000610 507.20507812 -452.65950012 -113.54815674 2 -2 -1 
265 6 2 1.00000000 128.19999695 504.37181091 -451.73645401 -115.97740173 2 -2 -1 
266 6 2 1.00000000 128.19999695 502.53588104 -453.92919922 -118.44808960 2 -2 -1 
267 6 1 -1.00000000 129.10000610 502.36250305 -453.63632965 -122.25751495 2 -2 -1 
268 6 1 -1.00000000 129.10000610 506.02945709 -453.36143112 -123.63320923 2 -2 -1 
269 6 2 1.00000000 128.19999695 508.80172729 -452.79090881 -121.10778809 2 -2 -1 
270 6 1 -1.00000000 129.10000610 511.36437225 -450.12762070 -119.64759827 2 -2 -1 
271 6 1 -1.00000000 129.10000610 515.25729370 -450.01626587 -119.78665161 2 -2 -1 
272 6 1 -1.00000000 129.10000610 518.43669128 -448.80111313 -119.09432983 3 -2 -1 
273 6 2 1.00000000 128.19999695 521.55932617 -450.48146439 -120.51197052 3 -2 -1 
274 6 1 -1.00000000 129.10000610 520.47277069 -453.93186188 -121.71967316 3 -2 -1 
275 6 1 -1.00000000 129.10000610 518.66701508 -453.83524323 -125.03009033 3 -2 -1 
276 6 2 1.00000000 128.19999695 516.86454010 -454.68920517 -128.28218079 2 -2 -1 
277 6 2 1.00000000 128.19999695 513.90476990 -454.45457840 -130.86445618 2 -2 -1 
278 6 2 1.00000000 128.19999695 510.16824341 -452.49722672 -130.95966339 2 -2 -1 
279 6 2 1.00000000 128.19999695 510.13528442 -449.04273987 -130.07382965 2 -2 -1 
280 6 2 1.00000000 128.19999695 512.11352539 -446.57709122 -127.76070404 2 -2 -1 
281 6 1 -1.00000000 129.10000610 515.21146393 -447.69324493 -125.55111694 2 -2 -1 
282 6 1 -1.00000000 129.10000610 515.59663391 -444.38373375 -123.49764252 2 -2 -1 
283 6 1 -1.00000000 129.10000610 518.37412262 -441.83055878 -123.93217468 2 -2 -1 
284 6 2 1.00000000 128.19999695 520.28239441 -439.84926414 -121.03151703 3 -2 -1 
285 6 2 1.00000000 128.19999695 518.58451843 -436.34872437 -121.53546143 3 -2 -1 
286 6 2 1.00000000 128.19999695 516.30988312 -434.00437355 -123.79075623 2 -2 -1 
287 6 1 -1.00000000 129.10000610 512.94083405 -433.46772957 -125.66909790 2 -2 -1 
288 6 2 1.00000000 128.19999695 511.49459076 -430.83010101 -128.39790344 2 -2 -1 
289 6 1 -1.00000000 129.10000610 508.64180756 -428.90372372 -129.95834351 2 -2 -1 
290 6 1 -1.00000000 129.10000610 508.46751404 -427.50663853 -133.37641144 2 -2 -1 
291 6 1 -1.00000000 129.10000610 509.69342041 -428.23264790 -136.76892853 2 -2 -1 
292 6 2 1.00000000 128.19999695 512.92751312 -430.47147560 -135.61108398 2 -2 -1 
293 6 1 -1.00000000 129.10000610 510.59935760 -433.33932686 -134.62202454 2 -2 -1 
294 6 2 1.00000000 128.19999695 510.04359436 -437.14712715 -134.76303101 2 -2 -1 
295 6 2 1.00000000 128.19999695 511.95890045 -439.98580933 -136.22026825 2 -2 -1 
296 6 2 1.00000000 128.19999695 514.41346741 -439.83125687 -139.41793060 2 -2 -1 
297 6 1 -1.00000000 129.10000610 515.00203705 -437.49151230 -141.78649139 2 -2 -1 
298 6 2 1.00000000 128.19999695 518.45570374 -436.88469315 -142.82866669 3 -2 -1 
299 6 1 -1.00000000 129.10000610 519.51220703 -435.14312172 -146.14959717 3 -2 -1 
300 6 2 1.00000000 128.19999695 519.36514282 -436.63545990 -149.86862564 3 -2 -1 
301 7 2 1.00000000 128.19999695 -44.77175903 -78.56711578 -829.03363362 0 0 -4 
302 7 1 -1.00000000 129.10000610 -43.32472229 -81.48575592 -831.16220152 0 0 -4 
303 7 2 1.00000000 128.19999695 -42.81036758 -84.90411377 -832.07188320 0 0 -4 
304 7 2 1.00000000 128.19999695 -41.89799118 -87.62886047 -829.34752291 0 0 -4 
305 7 2 1.00000000 128.19999695 -42.82645035 -90.47127533 -827.04256105 0 0 -4 
306 7 1 -1.00000000 129.10000610 -41.79885864 -94.17523956 -827.66994035 0 0 -4 
307 7 2 1.00000000 128.19999695 -39.54405212 -97.12358093 -826.83357549 0 0 -4 
308 7 1 -1.00000000 129.10000610 -36.19173813 -98.89272308 -825.76236010 0 0 -4 
309 7 1 -1.00000000 129.10000610 -32.58716202 -97.19430542 -825.59263253 0 0 -4 
310 7 1 -1.00000000 129.10000610 -30.11475945 -99.91677094 -826.22379184 0 0 -4 
311 7 2 1.00000000 128.19999695 -31.66877747 -103.27681732 -825.58633614 0 0 -4 
312 7 1 -1.00000000 129.10000610 -29.98262978 -106.55200195 -824.52037239 0 -1 -4 
313 7 1 -1.00000000 129.10000610 -30.91890526 -110.01228333 -825.20289850 0 -1 -4 
314 7 1 -1.00000000 129.10000610 -29.70717239 -112.85281372 -827.13264537 0 -1 -4 
315 7 2 1.00000000 128.19999695 -32.65906906 -112.85431671 -829.83803484 0 -1 -4 
316 7 2 1.00000000 128.19999695 -34.58009338 -109.24867249 -831.16987121 0 -1 -4 
317 7 1 -1.00000000 129.10000610 -35.76132965 -105.81500244 -829.75027543 0 -1 -4 
318 7 1 -1.00000000 129.10000610 -34.35129547 -102.30652618 -830.94298029 0 0 -4 
319 7 2 1.00000000 128.19999695 -31.80938911 -101.18157196 -833.49032784 0 0 -4 
320 7 1 -1.00000000 129.10000610 -28.87659264 -101.69965363 -835.79968929 0 0 -4 
321 7 1 -1.00000000 129.10000610 -25.95998573 -99.54051971 -837.62913513 0 0 -4 
322 7 1 -1.00000000 129.10000610 -26.39198875 -97.77839661 -840.98958874 0 0 -4 
323 7 2 1.00000000 128.19999695 -23.74012566 -96.03869629 -843.00832558 0 0 -4 
324 7 1 -1.00000000 129.10000610 -21.06955528 -93.86475372 -844.24325562 0 0 -4 
325 7 1 -1.00000000 129.10000610 -20.72439003 -90.40297699 -845.84819794 0 0 -4 
326 7 2 1.00000000 128.19999695 -20.61948967 -89.13911438 -849.53850365 0 0 -4 
327 7 2 1.00000000 128.19999695 -20.42991829 -85.58446503 -850.69598770 0 0 -4 
328 7 2 1.00000000 128.19999695 -16.99446487 -84.05724335 -852.07465172 0 0 -4 
329 7 2 1.00000000 128.19999695 -13.53513145 -83.63243866 -850.37793922 0 0 -4 
330 7 2 1.00000000 128.19999695 -11.80953217 -84.17590332 -846.78254318 0 0 -4 
331 7 1 -1.00000000 129.10000610 -13.31174755 -84.02590179 -843.35459423 0 0 -4 
332 7 1 -1.00000000 129.10000610 -11.23691845 -85.53800201 -840.32355881 0 0 -4 
333 7 1 -1.00000000 129.10000610 -9.01008415 -82.40722656 -839.05740929 0 0 -4 
334 7 2 1.00000000 128.19999695 -7.60900021 -79.95973969 -836.50653648 0 0 -4 
335 7 2 1.00000000 128.19999695 -6.46872997 -76.13401031 -836.09360170 0 0 -4 
336 7 2 1.00000000 128.19999695 -8.53960800 -72.67612457 -835.97616291 0 0 -4 
337 7 1 -1.00000000 129.10000610 -8.70624447 -71.45471191 -839.59672642 0 0 -4 
338 7 2 1.00000000 128.19999695 -11.45134735 -71.08666992 -842.32775879 0 0 -4 
339 7 1 -1.00000000 129.10000610 -11.49811172 -68.16904449 -844.37230873 0 0 -4 
340 7 1 -1.00000000 129.10000610 -10.97397709 -64.46921539 -843.80824661 0 0 -4 
341 7 1 -1.00000000 129.10000610 -7.94781399 -62.16444397 -842.00272655 0 0 -4 
342 7 2 1.00000000 128.19999695 -6.44147491 -60.99621582 -845.18797112 0 0 -4 
343 7 1 -1.00000000 129.10000610 -5.68545151 -58.18058014 -848.04499626 0 0 -4 
344 7 2 1.00000000 128.19999695 -7.02623844 -59.06367874 -851.28123665 0 0 -4 
345 7 2 1.00000000 128.19999695 -5.13669968 -62.03379822 -852.46444130 0 0 -4 
346 7 2 1.00000000 128.19999695 -2.93845391 -64.80934906 -851.64245605 0 0 -4 
347 7 1 -1.00000000 129.10000610 -1.33784354 -67.72548676 -853.36005783 0 0 -4 
348 7 2 1.00000000 128.19999695 0.26615298 -68.90676880 -856.20676231 0 0 -4 
349 7 1 -1.00000000 129.10000610 1.74728167 -70.03759766 -859.78465080 0 0 -4 
350 7 2 1.00000000 128.19999695 -0.54770613 -70.48300934 -862.62176132 0 0 -4 
351 8 2 1.00000000 128.19999695 96.43299103 -180.21169662 594.45347214 0 -1 3 
352 8 1 -1.00000000 129.10000610 94.15768433 -177.41631508 595.74180984 0 -1 3 
353 8 2 1.00000000 128.19999695 91.71459198 -174.81584930 596.64560509 0 -1 3 
354 8 2 1.00000000 128.19999695 88.43644714 -173.80862045 595.06531143 0 -1 3 
355 8 2 1.00000000 128.19999695 85.16046143 -172.57857132 596.88724709 0 -1 3 
356 8 1 -1.00000000 129.10000610 83.70166779 -169.99966431 594.33000946 0 -1 3 
357 8 2 1.00000000 128.19999695 81.60037231 -171.65993500 591.55021477 0 -1 3 
358 8 1 -1.00000000 129.10000610 77.71852875 -172.56909180 591.86266518 0 -1 3 
359 8 1 -1.00000000 129.10000610 74.74779510 -169.82635498 592.02827644 0 -1 3 
360 8 1 -1.00000000 129.10000610 71.31848907 -168.54034042 591.43189621 0 -1 3 
361 8 2 1.00000000 128.19999695 69.57273102 -167.91825104 594.78762436 0 -1 3 
362 8 1 -1.00000000 129.10000610 67.57785034 -169.08919144 597.80104446 0 -1 3 
363 8 1 -1.00000000 129.10000610 64.46491241 -168.83171082 600.46099663 0 -1 3 
364 8 1 -1.00000000 129.10000610 64.77362823 -167.92000198 604.24522972 0 -1 3 
365 8 2 1.00000000 128.19999695 63.72526932 -170.13269424 607.37087917 0 -1 3 
366 8 2 1.00000000 128.19999695 60.05327606 -170.22397614 608.79390430 0 -1 3 
367 8 1 -1.00000000 129.10000610 57.63924789 -172.10804367 610.62441826 0 -1 3 
368 8 1 -1.00000000 129.10000610 57.48082352 -174.66962433 613.61235714 0 -1 3 