ITEM: TIMESTEP
44200000 
ITEM: NUMBER OF ATOMS 
25000 
ITEM: BOX BOUNDS pp pp pp 
-103.678017 103.678017 
-103.678017 103.678017 
-103.678017 103.678017 
ITEM: ATOMS id mol type q mass xu yu zu ix iy iz 
1 1 2 1.00000000 128.19999695 551.45149994 -205.50191653 -269.77119064 3 -1 -1 
2 1 1 -1.00000000 129.10000610 549.19921112 -202.84113121 -270.68836975 3 -1 -1 
3 1 2 1.00000000 128.19999695 547.84795380 -199.34538937 -271.70530701 3 -1 -1 
4 1 2 1.00000000 128.19999695 544.33207703 -198.32230854 -271.10867691 3 -1 -1 
5 1 2 1.00000000 128.19999695 541.98794556 -201.10163212 -269.75052643 3 -1 -1 
6 1 1 -1.00000000 129.10000610 538.29476929 -201.35433054 -270.73971558 3 -1 -1 
7 1 2 1.00000000 128.19999695 538.16223907 -203.50122643 -274.03382111 3 -1 -1 
8 1 1 -1.00000000 129.10000610 536.83551025 -207.18520188 -275.01019287 3 -1 -1 
9 1 1 -1.00000000 129.10000610 533.98415375 -207.84013522 -277.28016663 3 -1 -1 
10 1 1 -1.00000000 129.10000610 534.63052368 -207.02747595 -281.06989288 3 -1 -1 
11 1 2 1.00000000 128.19999695 533.11270905 -210.45450616 -282.23336029 3 -1 -1 
12 1 1 -1.00000000 129.10000610 532.27159882 -214.26944351 -281.96485138 3 -1 -1 
13 1 1 -1.00000000 129.10000610 529.87904358 -217.20129776 -282.32297516 3 -1 -1 
14 1 1 -1.00000000 129.10000610 526.82744598 -219.24137020 -283.17536163 3 -1 -1 
15 1 2 1.00000000 128.19999695 525.98111725 -223.02606487 -281.55258179 3 -1 -1 
16 1 2 1.00000000 128.19999695 524.23065948 -223.50056458 -278.26497650 3 -1 -1 
17 1 1 -1.00000000 129.10000610 523.15763092 -224.57357407 -274.77473450 3 -1 -1 
18 1 1 -1.00000000 129.10000610 525.48809814 -227.15263939 -273.27348328 3 -1 -1 
19 1 2 1.00000000 128.19999695 525.46111298 -228.49200058 -269.69011688 3 -1 -1 
20 1 1 -1.00000000 129.10000610 528.00299835 -231.67503357 -270.12086487 3 -1 -1 
21 1 1 -1.00000000 129.10000610 527.85484314 -234.49625397 -267.76549149 3 -1 -1 
22 1 1 -1.00000000 129.10000610 529.32618713 -237.41391945 -269.40362549 3 -1 -1 
23 1 2 1.00000000 128.19999695 529.41671753 -238.85444260 -273.02982330 3 -1 -1 
24 1 1 -1.00000000 129.10000610 529.78276062 -238.57534981 -276.69301605 3 -1 -1 
25 1 1 -1.00000000 129.10000610 526.26034546 -238.48986816 -277.91715240 3 -1 -1 
26 1 2 1.00000000 128.19999695 524.42808533 -237.22297859 -280.84684753 3 -1 -1 
27 1 2 1.00000000 128.19999695 525.78901672 -234.88277435 -283.51264191 3 -1 -1 
28 1 2 1.00000000 128.19999695 525.92720032 -234.44091034 -287.40786743 3 -1 -1 
29 1 2 1.00000000 128.19999695 524.55822754 -231.39412498 -289.16846466 3 -1 -1 
30 1 2 1.00000000 128.19999695 523.86281586 -228.25426674 -286.92393494 3 -1 -1 
31 1 1 -1.00000000 129.10000610 523.12657928 -224.78053856 -286.73829651 3 -1 -1 
32 1 1 -1.00000000 129.10000610 519.60799408 -223.59794998 -285.75678253 3 -1 -1 
33 1 1 -1.00000000 129.10000610 519.38549042 -222.80186367 -281.98307037 3 -1 -1 
34 1 2 1.00000000 128.19999695 518.05058289 -219.42808914 -281.25051117 2 -1 -1 
35 1 2 1.00000000 128.19999695 515.85566711 -219.08060932 -278.02527618 2 -1 -1 
36 1 2 1.00000000 128.19999695 513.90009308 -219.85525799 -275.00632477 2 -1 -1 
37 1 1 -1.00000000 129.10000610 514.49753571 -221.75159931 -271.55860138 2 -1 -1 
38 1 2 1.00000000 128.19999695 515.81629944 -222.79849720 -268.19591904 2 -1 -1 
39 1 1 -1.00000000 129.10000610 515.16080475 -224.38550568 -265.04271317 2 -1 -1 
40 1 1 -1.00000000 129.10000610 511.72361755 -226.60535622 -265.48598862 2 -1 -1 
41 1 1 -1.00000000 129.10000610 509.11754608 -228.31136703 -267.77883911 2 -1 -1 
42 1 2 1.00000000 128.19999695 509.99882507 -227.59009552 -271.46083832 2 -1 -1 
43 1 1 -1.00000000 129.10000610 511.43562317 -227.54398155 -274.85901642 2 -1 -1 
44 1 2 1.00000000 128.19999695 515.04539490 -228.96117783 -275.92576599 2 -1 -1 
45 1 2 1.00000000 128.19999695 518.69689178 -231.05602264 -275.93157196 3 -1 -1 
46 1 2 1.00000000 128.19999695 520.84688568 -232.03840828 -278.96413422 3 -1 -1 
47 1 1 -1.00000000 129.10000610 520.73495483 -231.58779907 -282.53472137 3 -1 -1 
48 1 2 1.00000000 128.19999695 519.12765503 -233.68776894 -285.09831238 3 -1 -1 
49 1 1 -1.00000000 129.10000610 517.03894806 -235.82555962 -287.24300385 2 -1 -1 
50 1 2 1.00000000 128.19999695 518.30225372 -236.06030464 -291.01224518 2 -1 -1 
51 2 2 1.00000000 128.19999695 584.15317917 335.25997925 -306.75317383 3 2 -1 
52 2 1 -1.00000000 129.10000610 585.30526352 338.33927917 -308.92852020 3 2 -1 
53 2 2 1.00000000 128.19999695 586.96185684 339.18113708 -312.19576263 3 2 -2 
54 2 2 1.00000000 128.19999695 588.48777008 342.20995331 -313.88899994 3 2 -2 
55 2 2 1.00000000 128.19999695 590.36340523 344.27870941 -316.46537781 3 2 -2 
56 2 1 -1.00000000 129.10000610 593.95528984 344.44540405 -317.23461914 3 2 -2 
57 2 2 1.00000000 128.19999695 595.01540756 342.99844360 -320.47047424 3 2 -2 
58 2 1 -1.00000000 129.10000610 594.35271645 341.09531403 -323.88231659 3 2 -2 
59 2 1 -1.00000000 129.10000610 591.35446548 340.12067413 -326.12326813 3 2 -2 
60 2 1 -1.00000000 129.10000610 589.21974945 337.81808472 -323.73673248 3 2 -2 
61 2 2 1.00000000 128.19999695 587.52545166 335.27829742 -321.69036102 3 2 -2 
62 2 1 -1.00000000 129.10000610 588.23327637 334.09145355 -318.43597412 3 2 -2 
63 2 1 -1.00000000 129.10000610 589.43388367 334.27831268 -314.96859741 3 2 -2 
64 2 1 -1.00000000 129.10000610 587.60718155 332.65115356 -312.70727539 3 2 -2 
65 2 2 1.00000000 128.19999695 589.89089203 330.34293365 -311.13091278 3 2 -2 
66 2 2 1.00000000 128.19999695 590.79984474 326.94323730 -311.93723297 3 2 -2 
67 2 1 -1.00000000 129.10000610 589.98962784 323.85930634 -313.74443054 3 2 -2 
68 2 1 -1.00000000 129.10000610 592.26375580 320.96588898 -313.75501251 3 2 -2 
69 2 2 1.00000000 128.19999695 593.47363091 317.31111908 -314.82356262 3 2 -2 
70 2 1 -1.00000000 129.10000610 593.35851097 314.71778870 -317.42327881 3 2 -2 
71 2 1 -1.00000000 129.10000610 593.89567375 315.75685120 -321.00608063 3 2 -2 
72 2 1 -1.00000000 129.10000610 591.84146500 315.07617188 -324.35234833 3 2 -2 
73 2 2 1.00000000 128.19999695 593.53366470 311.76653290 -326.14560699 3 2 -2 
74 2 1 -1.00000000 129.10000610 592.77060890 308.33706665 -327.00901794 3 1 -2 
75 2 1 -1.00000000 129.10000610 594.52079964 304.68821716 -327.39646912 3 1 -2 
76 2 2 1.00000000 128.19999695 595.11640167 302.15380096 -324.80699158 3 1 -2 
77 2 2 1.00000000 128.19999695 593.88454056 298.95428467 -323.24895477 3 1 -2 
78 2 2 1.00000000 128.19999695 590.15738297 298.67441559 -321.81600189 3 1 -2 
79 2 2 1.00000000 128.19999695 588.34553146 295.59777069 -320.55345154 3 1 -2 
80 2 2 1.00000000 128.19999695 587.80051041 292.57891846 -321.90469360 3 1 -2 
81 2 1 -1.00000000 129.10000610 585.84030151 291.77241516 -324.96811676 3 1 -2 
82 2 1 -1.00000000 129.10000610 583.25799942 291.19816589 -327.85562134 3 1 -2 
83 2 1 -1.00000000 129.10000610 583.34438324 293.03925323 -331.48087311 3 1 -2 
84 2 2 1.00000000 128.19999695 580.05007172 292.78069305 -333.00908661 3 1 -2 
85 2 2 1.00000000 128.19999695 576.68301010 292.50498199 -331.49132538 3 1 -2 
86 2 2 1.00000000 128.19999695 575.27269363 292.35501862 -327.99981689 3 1 -2 
87 2 1 -1.00000000 129.10000610 577.44763947 293.09432220 -325.08924866 3 1 -2 
88 2 2 1.00000000 128.19999695 579.41932678 292.46338654 -321.73934937 3 1 -2 
89 2 1 -1.00000000 129.10000610 577.36487961 291.41662598 -318.95249939 3 1 -2 
90 2 1 -1.00000000 129.10000610 579.59226227 289.61254120 -316.49835968 3 1 -2 
91 2 1 -1.00000000 129.10000610 582.18591309 290.16352844 -313.86729431 3 1 -2 
92 2 2 1.00000000 128.19999695 586.29337311 289.98789978 -314.73703766 3 1 -2 
93 2 1 -1.00000000 129.10000610 588.79766083 287.58641815 -313.08551025 3 1 -2 
94 2 2 1.00000000 128.19999695 590.68666840 288.66816711 -309.82349396 3 1 -1 
95 2 2 1.00000000 128.19999695 590.54908562 285.91218567 -307.23320770 3 1 -1 
96 2 2 1.00000000 128.19999695 587.50832367 285.13649750 -305.20588684 3 1 -1 
97 2 1 -1.00000000 129.10000610 585.28086090 287.82778168 -303.79795837 3 1 -1 
98 2 2 1.00000000 128.19999695 582.20531464 289.63127136 -302.70185852 3 1 -1 
99 2 1 -1.00000000 129.10000610 582.98344421 292.69647217 -300.21103668 3 1 -1 
100 2 2 1.00000000 128.19999695 580.12694168 294.80025482 -299.37693787 3 1 -1 
101 3 2 1.00000000 128.19999695 278.81338501 -107.64876556 55.43398666 1 -1 0 
102 3 1 -1.00000000 129.10000610 281.89864349 -107.11604309 57.22884750 1 -1 0 
103 3 2 1.00000000 128.19999695 284.36271667 -105.21050262 59.54553223 1 -1 0 
104 3 2 1.00000000 128.19999695 287.49161530 -104.96031952 61.97901917 1 -1 0 
105 3 2 1.00000000 128.19999695 291.40855408 -105.34603882 61.22268677 1 -1 0 
106 3 1 -1.00000000 129.10000610 294.48472595 -106.94479370 62.94760895 1 -1 0 
107 3 2 1.00000000 128.19999695 296.18286896 -108.75057983 66.02429199 1 -1 0 
108 3 1 -1.00000000 129.10000610 296.37237549 -108.77679443 69.65065002 1 -1 0 
109 3 1 -1.00000000 129.10000610 297.60697937 -108.00778961 73.42185211 1 -1 0 
110 3 1 -1.00000000 129.10000610 298.12102509 -107.05088806 77.52684021 1 -1 0 
111 3 2 1.00000000 128.19999695 301.78908539 -108.13232422 78.62440491 1 -1 0 
112 3 1 -1.00000000 129.10000610 301.89633179 -111.77261353 78.79487610 1 -1 0 
113 3 1 -1.00000000 129.10000610 301.72261810 -113.45578766 82.25702667 1 -1 0 
114 3 1 -1.00000000 129.10000610 300.45307922 -116.79697418 83.11587524 1 -1 0 
115 3 2 1.00000000 128.19999695 301.38578796 -118.91064453 85.93557739 1 -1 0 
116 3 2 1.00000000 128.19999695 301.13407898 -122.10909271 87.51986694 1 -1 0 
117 3 1 -1.00000000 129.10000610 301.75267029 -124.73458099 84.68442535 1 -1 0 
118 3 1 -1.00000000 129.10000610 305.15395355 -124.77327728 83.18507385 1 -1 0 
119 3 2 1.00000000 128.19999695 306.81794739 -127.02644348 80.35105896 1 -1 0 
120 3 1 -1.00000000 129.10000610 306.54077911 -128.29852295 76.99806976 1 -1 0 
121 3 1 -1.00000000 129.10000610 306.92153168 -127.52788544 73.33103180 1 -1 0 
122 3 1 -1.00000000 129.10000610 309.63562012 -124.59752655 73.05463409 1 -1 0 
123 3 2 1.00000000 128.19999695 309.04079437 -121.34530640 75.06085205 1 -1 0 
124 3 1 -1.00000000 129.10000610 308.74320984 -120.53364563 78.70314789 1 -1 0 
125 3 1 -1.00000000 129.10000610 311.46197510 -118.78218079 80.38555145 2 -1 0 
126 3 2 1.00000000 128.19999695 314.90835571 -119.93807220 81.33829498 2 -1 0 
127 3 2 1.00000000 128.19999695 317.88859558 -121.97386169 82.17020416 2 -1 0 
128 3 2 1.00000000 128.19999695 321.38153839 -121.46278381 80.58487701 2 -1 0 
129 3 2 1.00000000 128.19999695 324.74431610 -122.33937836 80.18618011 2 -1 0 
130 3 2 1.00000000 128.19999695 327.00886536 -124.28527832 77.76892090 2 -1 0 
131 3 1 -1.00000000 129.10000610 330.39744568 -124.67767334 75.95617676 2 -1 0 
132 3 1 -1.00000000 129.10000610 329.10311890 -124.61483765 72.18251801 2 -1 0 
133 3 1 -1.00000000 129.10000610 327.79519653 -121.22589874 71.03246307 2 -1 0 
134 3 2 1.00000000 128.19999695 327.19985199 -117.77760315 72.79333496 2 -1 0 
135 3 2 1.00000000 128.19999695 326.11061096 -115.23986816 70.54304504 2 -1 0 
136 3 2 1.00000000 128.19999695 323.66839600 -112.22875214 70.04766083 2 -1 0 
137 3 1 -1.00000000 129.10000610 320.55015564 -112.79872894 72.31800842 2 -1 0 
138 3 2 1.00000000 128.19999695 321.58809662 -114.79190063 75.41710663 2 -1 0 
139 3 1 -1.00000000 129.10000610 318.87309265 -113.97799683 78.38462067 2 -1 0 
140 3 1 -1.00000000 129.10000610 318.60831451 -109.99570465 79.74728394 2 -1 0 
141 3 1 -1.00000000 129.10000610 320.16417694 -107.31753540 82.05687714 2 -1 0 
142 3 2 1.00000000 128.19999695 323.80427551 -107.46425629 83.34517670 2 -1 0 
143 3 1 -1.00000000 129.10000610 326.71324921 -109.02577209 81.54772186 2 -1 0 
144 3 2 1.00000000 128.19999695 327.44223022 -108.57733917 77.74488068 2 -1 0 
145 3 2 1.00000000 128.19999695 324.01201630 -107.15806580 76.51194000 2 -1 0 
146 3 2 1.00000000 128.19999695 321.86207581 -104.53947449 74.27638245 2 -1 0 
147 3 1 -1.00000000 129.10000610 324.11048889 -104.29602814 71.05341339 2 -1 0 
148 3 2 1.00000000 128.19999695 322.84165955 -106.40632629 68.01406097 2 -1 0 
149 3 1 -1.00000000 129.10000610 323.77291870 -104.33302307 64.91268921 2 -1 0 
150 3 2 1.00000000 128.19999695 324.30722046 -101.58425903 62.41812897 2 0 0 
151 4 2 1.00000000 128.19999695 -306.33090973 343.18952942 -27.43676376 -1 2 0 
152 4 1 -1.00000000 129.10000610 -302.84513855 342.16613007 -26.30402374 -1 2 0 
153 4 2 1.00000000 128.19999695 -300.13258362 344.52361298 -24.65587234 -1 2 0 
154 4 2 1.00000000 128.19999695 -300.47638702 344.86051941 -20.96746445 -1 2 0 
155 4 2 1.00000000 128.19999695 -301.09079742 345.81734467 -17.49976921 -1 2 0 
156 4 1 -1.00000000 129.10000610 -300.60428619 343.38019562 -14.82435513 -1 2 0 
157 4 2 1.00000000 128.19999695 -301.77601624 343.49830627 -11.27858639 -1 2 0 
158 4 1 -1.00000000 129.10000610 -305.80080414 343.57437134 -10.75532532 -1 2 0 
159 4 1 -1.00000000 129.10000610 -305.46070862 343.33413696 -6.69302797 -1 2 0 
160 4 1 -1.00000000 129.10000610 -303.82521057 344.97286987 -3.73233104 -1 2 0 
161 4 2 1.00000000 128.19999695 -301.43637085 347.54479980 -4.88091469 -1 2 0 
162 4 1 -1.00000000 129.10000610 -298.10388947 347.99102783 -3.88173151 -1 2 0 
163 4 1 -1.00000000 129.10000610 -295.48706818 349.56617737 -1.84631693 -1 2 0 
164 4 1 -1.00000000 129.10000610 -295.50238800 352.31642151 0.08026397 -1 2 0 
165 4 2 1.00000000 128.19999695 -298.52710724 352.63000870 2.07040358 -1 2 0 
166 4 2 1.00000000 128.19999695 -302.45851135 352.49732208 2.65710068 -1 2 0 
167 4 1 -1.00000000 129.10000610 -304.18094635 355.24911118 5.00516319 -1 2 0 
168 4 1 -1.00000000 129.10000610 -302.22133636 356.30335617 8.27652931 -1 2 0 
169 4 2 1.00000000 128.19999695 -298.59790039 355.86265945 10.14962292 -1 2 0 
170 4 1 -1.00000000 129.10000610 -296.39405060 355.78468704 13.34372902 -1 2 0 
171 4 1 -1.00000000 129.10000610 -293.52800751 353.88193893 14.84392262 -1 2 0 
172 4 1 -1.00000000 129.10000610 -289.74310303 353.97942734 15.45113945 -1 2 0 
173 4 2 1.00000000 128.19999695 -288.16664886 357.19283295 13.76890087 -1 2 0 
174 4 1 -1.00000000 129.10000610 -285.30976868 359.32861328 15.16635227 -1 2 0 
175 4 1 -1.00000000 129.10000610 -283.45485687 360.90425491 17.76480103 -1 2 0 
176 4 2 1.00000000 128.19999695 -279.75743103 362.16270828 18.60051346 -1 2 0 
177 4 2 1.00000000 128.19999695 -280.10453796 364.78257751 21.19338608 -1 2 0 
178 4 2 1.00000000 128.19999695 -277.76051331 366.55609512 23.86752129 -1 2 0 
179 4 2 1.00000000 128.19999695 -275.10224915 366.57580566 26.26804352 -1 2 0 
180 4 2 1.00000000 128.19999695 -272.88118744 363.56478882 27.46969223 -1 2 0 
181 4 1 -1.00000000 129.10000610 -274.07540894 360.02040100 28.02862549 -1 2 0 
182 4 1 -1.00000000 129.10000610 -273.59839630 358.68396759 31.42553139 -1 2 0 
183 4 1 -1.00000000 129.10000610 -271.50562286 356.46978378 33.95362854 -1 2 0 
184 4 2 1.00000000 128.19999695 -268.28542328 358.96862411 34.72191620 -1 2 0 
185 4 2 1.00000000 128.19999695 -266.12108994 359.41622543 31.61474419 -1 2 0 
186 4 2 1.00000000 128.19999695 -263.10796738 361.45237732 32.72276306 -1 2 0 
187 4 1 -1.00000000 129.10000610 -262.02649689 361.16484070 35.93518448 -1 2 0 
188 4 2 1.00000000 128.19999695 -260.43028259 358.13209915 37.58808517 -1 2 0 
189 4 1 -1.00000000 129.10000610 -261.32549667 355.39151001 35.43664169 -1 2 0 
190 4 1 -1.00000000 129.10000610 -264.19760132 353.04419327 36.92654419 -1 2 0 
191 4 1 -1.00000000 129.10000610 -267.70172501 352.56228638 38.31277847 -1 2 0 
192 4 2 1.00000000 128.19999695 -269.69847488 350.22003174 35.98278427 -1 2 0 
193 4 1 -1.00000000 129.10000610 -272.05048370 347.63674927 36.32191086 -1 2 0 
194 4 2 1.00000000 128.19999695 -275.75187683 348.59020996 37.68472672 -1 2 0 
195 4 2 1.00000000 128.19999695 -276.87606049 352.55213547 37.81472397 -1 2 0 
196 4 2 1.00000000 128.19999695 -276.18006897 353.10532761 41.39513016 -1 2 0 
197 4 1 -1.00000000 129.10000610 -276.43283844 356.58868027 42.76579666 -1 2 0 
198 4 2 1.00000000 128.19999695 -276.74690247 358.82532501 46.39696503 -1 2 0 
199 4 1 -1.00000000 129.10000610 -276.58489990 358.01844406 49.83803558 -1 2 0 
200 4 2 1.00000000 128.19999695 -279.00596619 357.24339294 52.70830917 -1 2 0 
201 5 2 1.00000000 128.19999695 -310.53749084 -232.61358452 -248.07681656 -1 -1 -1 
202 5 1 -1.00000000 129.10000610 -306.56917572 -233.75194931 -248.48310089 -1 -1 -1 
203 5 2 1.00000000 128.19999695 -306.03353882 -236.12322998 -245.26802444 -1 -1 -1 
204 5 2 1.00000000 128.19999695 -306.27480316 -234.44447708 -242.27275848 -1 -1 -1 
205 5 2 1.00000000 128.19999695 -308.86879730 -231.92774773 -241.76397324 -1 -1 -1 
206 5 1 -1.00000000 129.10000610 -310.36254883 -228.90408897 -240.02780533 -1 -1 -1 
207 5 2 1.00000000 128.19999695 -312.60280609 -227.73159599 -237.50063515 -2 -1 -1 
208 5 1 -1.00000000 129.10000610 -312.35314178 -228.53097916 -234.11526489 -2 -1 -1 
209 5 1 -1.00000000 129.10000610 -314.32328033 -229.01642609 -230.71200943 -2 -1 -1 
210 5 1 -1.00000000 129.10000610 -316.42299652 -232.39100266 -230.74638557 -2 -1 -1 
211 5 2 1.00000000 128.19999695 -319.71012115 -233.70364952 -228.92112541 -2 -1 -1 
212 5 1 -1.00000000 129.10000610 -323.06280518 -234.87610435 -227.35135460 -2 -1 -1 
213 5 1 -1.00000000 129.10000610 -324.12229156 -237.94657898 -229.40424728 -2 -1 -1 
214 5 1 -1.00000000 129.10000610 -324.79637146 -241.95859528 -228.26043510 -2 -1 -1 
215 5 2 1.00000000 128.19999695 -328.60852814 -242.94814682 -228.07875252 -2 -1 -1 
216 5 2 1.00000000 128.19999695 -329.12181091 -241.95297241 -224.28994179 -2 -1 -1 
217 5 1 -1.00000000 129.10000610 -332.03531647 -244.35497284 -223.64725685 -2 -1 -1 
218 5 1 -1.00000000 129.10000610 -331.45488739 -248.12555313 -225.10810661 -2 -1 -1 
219 5 2 1.00000000 128.19999695 -328.21492767 -249.84698105 -224.81140709 -2 -1 -1 
220 5 1 -1.00000000 129.10000610 -324.68199158 -251.61964798 -225.13900757 -2 -1 -1 
221 5 1 -1.00000000 129.10000610 -323.64919281 -254.32479095 -227.52452850 -2 -1 -1 
222 5 1 -1.00000000 129.10000610 -323.57246399 -253.42823792 -231.44790268 -2 -1 -1 
223 5 2 1.00000000 128.19999695 -326.85291290 -254.91220856 -233.02214622 -2 -1 -1 
224 5 1 -1.00000000 129.10000610 -326.77030945 -258.30415726 -234.37499237 -2 -1 -1 
225 5 1 -1.00000000 129.10000610 -326.18079376 -261.37240982 -236.36145592 -2 -1 -1 
226 5 2 1.00000000 128.19999695 -326.19315338 -261.84590912 -239.85526276 -2 -1 -1 
227 5 2 1.00000000 128.19999695 -325.97912598 -261.31801605 -243.68664932 -2 -1 -1 
228 5 2 1.00000000 128.19999695 -323.96060944 -258.16746902 -244.34733200 -2 -1 -1 
229 5 2 1.00000000 128.19999695 -320.65298462 -259.27544785 -245.87106705 -2 -1 -1 
230 5 2 1.00000000 128.19999695 -320.23880768 -260.48585129 -249.61111069 -2 -1 -1 
231 5 1 -1.00000000 129.10000610 -321.14067841 -264.17955399 -250.83044052 -2 -1 -1 
232 5 1 -1.00000000 129.10000610 -318.65422821 -266.03387451 -248.40273285 -2 -1 -1 
233 5 1 -1.00000000 129.10000610 -315.55930328 -268.11581802 -247.26327896 -2 -1 -1 
234 5 2 1.00000000 128.19999695 -316.48414612 -268.04491806 -243.43303680 -2 -1 -1 
235 5 2 1.00000000 128.19999695 -314.98616791 -265.18402863 -241.81691742 -2 -1 -1 
236 5 2 1.00000000 128.19999695 -316.62916565 -261.87274933 -240.53490067 -2 -1 -1 
237 5 1 -1.00000000 129.10000610 -314.68352509 -259.34709167 -242.25906372 -2 -1 -1 
238 5 2 1.00000000 128.19999695 -314.55895233 -255.67241669 -241.07988739 -2 -1 -1 
239 5 1 -1.00000000 129.10000610 -313.54577637 -256.91682053 -237.50713539 -2 -1 -1 
240 5 1 -1.00000000 129.10000610 -315.06819153 -259.35791016 -234.96686172 -2 -1 -1 
241 5 1 -1.00000000 129.10000610 -313.39281464 -262.99712753 -235.66175842 -2 -1 -1 
242 5 2 1.00000000 128.19999695 -312.65052032 -265.14411545 -232.77902222 -2 -1 -1 
243 5 1 -1.00000000 129.10000610 -310.90295410 -266.86987305 -229.95268250 -1 -1 -1 
244 5 2 1.00000000 128.19999695 -311.20122528 -265.78607941 -226.30444717 -2 -1 -1 
245 5 2 1.00000000 128.19999695 -314.58171844 -266.83989716 -225.34404945 -2 -1 -1 
246 5 2 1.00000000 128.19999695 -315.14340210 -264.05856705 -222.44474220 -2 -1 -1 
247 5 1 -1.00000000 129.10000610 -311.67881012 -263.69269562 -221.16318130 -2 -1 -1 
248 5 2 1.00000000 128.19999695 -308.39461517 -264.31735611 -219.44174957 -1 -1 -1 
249 5 1 -1.00000000 129.10000610 -305.56070709 -261.61041260 -219.20380878 -1 -1 -1 
250 5 2 1.00000000 128.19999695 -304.55171204 -258.19527054 -220.72225952 -1 -1 -1 
251 6 2 1.00000000 128.19999695 478.98861694 -503.05389404 -103.66667175 2 -2 0 
252 6 1 -1.00000000 129.10000610 481.54051971 -500.35121155 -103.66860962 2 -2 0 
253 6 2 1.00000000 128.19999695 484.91371155 -498.86864471 -105.10911560 2 -2 -1 
254 6 2 1.00000000 128.19999695 488.19377136 -500.40878296 -103.55658722 2 -2 0 
255 6 2 1.00000000 128.19999695 488.49227905 -500.95344543 -99.87741089 2 -2 0 
256 6 1 -1.00000000 129.10000610 489.83975983 -501.31261444 -96.55568695 2 -2 0 
257 6 2 1.00000000 128.19999695 491.11624908 -502.99290466 -93.31285095 2 -2 0 
258 6 1 -1.00000000 129.10000610 490.67162323 -503.06786346 -89.64752197 2 -2 0 
259 6 1 -1.00000000 129.10000610 489.42987823 -499.59461212 -88.20326996 2 -2 0 
260 6 1 -1.00000000 129.10000610 488.31977081 -496.61081696 -90.65895081 2 -2 0 
261 6 2 1.00000000 128.19999695 485.83653259 -497.94921112 -93.07363129 2 -2 0 
262 6 1 -1.00000000 129.10000610 483.05108643 -495.88215637 -94.85780334 2 -2 0 
263 6 1 -1.00000000 129.10000610 481.61992645 -494.81637573 -91.50675964 2 -2 0 
264 6 1 -1.00000000 129.10000610 477.97952652 -494.82556152 -90.62541962 2 -2 0 
265 6 2 1.00000000 128.19999695 476.13972092 -493.33589172 -87.37428284 2 -2 0 
266 6 2 1.00000000 128.19999695 476.44701004 -496.20706940 -84.74163818 2 -2 0 
267 6 1 -1.00000000 129.10000610 479.34665680 -495.97933197 -82.49693298 2 -2 0 
268 6 1 -1.00000000 129.10000610 482.27696991 -494.01667023 -84.03965759 2 -2 0 
269 6 2 1.00000000 128.19999695 485.19105530 -495.86492920 -82.53421783 2 -2 0 
270 6 1 -1.00000000 129.10000610 488.03737640 -494.06005859 -80.84543610 2 -2 0 
271 6 1 -1.00000000 129.10000610 490.30536652 -491.18592834 -81.23819733 2 -2 0 
272 6 1 -1.00000000 129.10000610 489.54752350 -487.87575531 -79.17578125 2 -2 0 
273 6 2 1.00000000 128.19999695 487.47621155 -484.73995972 -78.62785339 2 -2 0 
274 6 1 -1.00000000 129.10000610 486.81202698 -481.35581207 -80.48670959 2 -2 0 
275 6 1 -1.00000000 129.10000610 482.89497375 -481.94584656 -81.12236023 2 -2 0 
276 6 2 1.00000000 128.19999695 482.08975983 -482.64428711 -84.73320770 2 -2 0 
277 6 2 1.00000000 128.19999695 484.10011292 -484.12085724 -87.54914093 2 -2 0 
278 6 2 1.00000000 128.19999695 487.24313354 -486.33874512 -88.34439087 2 -2 0 
279 6 2 1.00000000 128.19999695 490.23729706 -484.26454163 -88.45139313 2 -2 0 
280 6 2 1.00000000 128.19999695 492.62691498 -484.71440887 -91.45969391 2 -2 0 
281 6 1 -1.00000000 129.10000610 493.97567749 -486.85826874 -94.08658600 2 -2 0 
282 6 1 -1.00000000 129.10000610 492.95888519 -486.95874786 -97.85771942 2 -2 0 
283 6 1 -1.00000000 129.10000610 491.69254303 -483.76942444 -98.98294830 2 -2 0 
284 6 2 1.00000000 128.19999695 488.09205627 -483.97031403 -100.50531006 2 -2 0 
285 6 2 1.00000000 128.19999695 486.84575653 -481.67066193 -103.41293335 2 -2 0 
286 6 2 1.00000000 128.19999695 487.42381287 -482.40834045 -107.07358551 2 -2 -1 
287 6 1 -1.00000000 129.10000610 486.17623138 -480.09265900 -109.98973083 2 -2 -1 
288 6 2 1.00000000 128.19999695 485.98062134 -478.51309204 -113.62866974 2 -2 -1 
289 6 1 -1.00000000 129.10000610 487.85136414 -475.59623718 -113.94686127 2 -2 -1 
290 6 1 -1.00000000 129.10000610 491.15760803 -474.75646591 -112.80204010 2 -2 -1 
291 6 1 -1.00000000 129.10000610 492.79893494 -471.21392441 -112.84185028 2 -2 -1 
292 6 2 1.00000000 128.19999695 494.72680664 -469.09811401 -115.36837006 2 -2 -1 
293 6 1 -1.00000000 129.10000610 493.07131958 -468.38685608 -118.69607544 2 -2 -1 
294 6 2 1.00000000 128.19999695 490.82605743 -466.01041412 -120.88681030 2 -2 -1 
295 6 2 1.00000000 128.19999695 490.60060883 -466.14942932 -124.52635193 2 -2 -1 
296 6 2 1.00000000 128.19999695 487.44487762 -466.24477005 -126.89706421 2 -2 -1 
297 6 1 -1.00000000 129.10000610 486.57489777 -463.71873093 -129.45859528 2 -2 -1 
298 6 2 1.00000000 128.19999695 485.69185638 -459.75127792 -129.61356354 2 -2 -1 
299 6 1 -1.00000000 129.10000610 485.93885040 -455.55495071 -129.54703522 2 -2 -1 
300 6 2 1.00000000 128.19999695 487.26400757 -452.78952026 -132.05699921 2 -2 -1 
301 7 2 1.00000000 128.19999695 -13.88407421 -41.70672989 -788.29950714 0 0 -4 
302 7 1 -1.00000000 129.10000610 -16.17068672 -39.65231705 -789.89001465 0 0 -4 
303 7 2 1.00000000 128.19999695 -18.88578987 -40.55723190 -792.06978607 0 0 -4 
304 7 2 1.00000000 128.19999695 -22.23785591 -39.17479706 -793.62041473 0 0 -4 
305 7 2 1.00000000 128.19999695 -22.89509583 -37.37357330 -796.69308472 0 0 -4 
306 7 1 -1.00000000 129.10000610 -20.86107635 -34.26778030 -796.94585419 0 0 -4 
307 7 2 1.00000000 128.19999695 -17.85760117 -31.80881882 -797.72182846 0 0 -4 
308 7 1 -1.00000000 129.10000610 -14.14302349 -30.66778374 -797.28460693 0 0 -4 
309 7 1 -1.00000000 129.10000610 -12.04645920 -32.40325546 -794.72191238 0 0 -4 
310 7 1 -1.00000000 129.10000610 -12.35296726 -35.01105499 -792.03338242 0 0 -4 
311 7 2 1.00000000 128.19999695 -12.46644402 -35.36624146 -788.08666992 0 0 -4 
312 7 1 -1.00000000 129.10000610 -9.10698509 -34.49406052 -787.09608078 0 0 -4 
313 7 1 -1.00000000 129.10000610 -6.74716234 -36.97101593 -787.96687698 0 0 -4 
314 7 1 -1.00000000 129.10000610 -3.94287944 -39.32866287 -786.55383682 0 0 -4 
315 7 2 1.00000000 128.19999695 -3.53764319 -43.16706085 -787.47389221 0 0 -4 
316 7 2 1.00000000 128.19999695 -4.40778208 -46.76875305 -786.56589508 0 0 -4 
317 7 1 -1.00000000 129.10000610 -6.60733700 -48.73021698 -784.14155960 0 0 -4 
318 7 1 -1.00000000 129.10000610 -7.41139174 -52.49145889 -784.32824326 0 0 -4 
319 7 2 1.00000000 128.19999695 -6.52697229 -54.53477859 -781.64284134 0 0 -4 
320 7 1 -1.00000000 129.10000610 -6.37075806 -52.14555740 -778.91181564 0 0 -4 
321 7 1 -1.00000000 129.10000610 -6.78192329 -48.50838470 -777.50532913 0 0 -4 
322 7 1 -1.00000000 129.10000610 -7.21065760 -45.18080902 -779.69781494 0 0 -4 
323 7 2 1.00000000 128.19999695 -7.70158625 -41.85515976 -781.81866837 0 0 -4 
324 7 1 -1.00000000 129.10000610 -8.44563293 -39.64910126 -778.28979111 0 0 -4 
325 7 1 -1.00000000 129.10000610 -11.53658581 -37.86195374 -776.64530563 0 0 -4 
326 7 2 1.00000000 128.19999695 -15.35115242 -36.41415024 -776.77357101 0 0 -4 
327 7 2 1.00000000 128.19999695 -18.43711090 -33.95121002 -776.06581879 0 0 -4 
328 7 2 1.00000000 128.19999695 -21.70165443 -32.20328903 -775.40328217 0 0 -4 
329 7 2 1.00000000 128.19999695 -25.74727249 -32.38582611 -775.17743301 0 0 -4 
330 7 2 1.00000000 128.19999695 -28.12806320 -34.25603867 -776.66185379 0 0 -4 
331 7 1 -1.00000000 129.10000610 -31.61437225 -33.78342438 -776.97635269 0 0 -4 
332 7 1 -1.00000000 129.10000610 -33.84132385 -34.56870270 -779.82014465 0 0 -4 
333 7 1 -1.00000000 129.10000610 -32.77439117 -33.34468460 -783.62519455 0 0 -4 
334 7 2 1.00000000 128.19999695 -30.16452599 -30.56351280 -784.42236328 0 0 -4 
335 7 2 1.00000000 128.19999695 -29.17245102 -27.05487823 -785.62364197 0 0 -4 
336 7 2 1.00000000 128.19999695 -25.97628021 -25.18203735 -783.95923996 0 0 -4 
337 7 1 -1.00000000 129.10000610 -23.27318001 -22.40637016 -783.93911362 0 0 -4 
338 7 2 1.00000000 128.19999695 -25.21401024 -19.10829735 -784.80458069 0 0 -4 
339 7 1 -1.00000000 129.10000610 -29.01109695 -19.06043434 -784.29713058 0 0 -4 
340 7 1 -1.00000000 129.10000610 -30.04010391 -20.19031143 -780.98268890 0 0 -4 
341 7 1 -1.00000000 129.10000610 -31.44243431 -23.17934990 -779.19152069 0 0 -4 
342 7 2 1.00000000 128.19999695 -32.01726532 -25.04554749 -775.90538406 0 0 -4 
343 7 1 -1.00000000 129.10000610 -29.68940544 -26.04153824 -773.04689789 0 0 -4 
344 7 2 1.00000000 128.19999695 -30.91178513 -27.95167732 -769.98834229 0 0 -4 
345 7 2 1.00000000 128.19999695 -32.54217148 -31.22085381 -769.10085678 0 0 -4 
346 7 2 1.00000000 128.19999695 -34.83421326 -33.58799744 -770.07966614 0 0 -4 
347 7 1 -1.00000000 129.10000610 -37.54486847 -31.86699104 -772.09883499 0 0 -4 
348 7 2 1.00000000 128.19999695 -37.66291809 -30.65390968 -775.87179184 0 0 -4 
349 7 1 -1.00000000 129.10000610 -38.45734406 -28.50856781 -778.69759369 0 0 -4 
350 7 2 1.00000000 128.19999695 -38.66846085 -29.97786331 -782.15248489 0 0 -4 
351 8 2 1.00000000 128.19999695 19.78657913 -192.81671238 661.53848267 0 -1 3 
352 8 1 -1.00000000 129.10000610 18.95442390 -195.60478210 659.10321045 0 -1 3 
353 8 2 1.00000000 128.19999695 20.25891685 -198.13202858 656.42350006 0 -1 3 
354 8 2 1.00000000 128.19999695 22.24216270 -198.89247894 653.00116920 0 -1 3 
355 8 2 1.00000000 128.19999695 25.27883530 -201.32025290 652.83529854 0 -1 3 
356 8 1 -1.00000000 129.10000610 26.89231300 -204.03523183 654.53812408 0 -1 3 
357 8 2 1.00000000 128.19999695 25.63893127 -207.79910022 655.76601791 0 -1 3 
358 8 1 -1.00000000 129.10000610 22.25924110 -208.45072138 657.45309448 0 -1 3 
359 8 1 -1.00000000 129.10000610 18.43779945 -207.96260971 656.37975311 0 -1 3 
360 8 1 -1.00000000 129.10000610 14.97480869 -207.39534615 658.16355515 0 -1 3 
361 8 2 1.00000000 128.19999695 12.63753414 -209.90817976 659.67338181 0 -1 3 
362 8 1 -1.00000000 129.10000610 14.52234840 -212.65770626 661.58232117 0 -1 3 
363 8 1 -1.00000000 129.10000610 17.89772797 -213.04906082 663.15581131 0 -1 3 
364 8 1 -1.00000000 129.10000610 19.22695160 -215.90254593 661.21425629 0 -1 3 
365 8 2 1.00000000 128.19999695 19.83868790 -219.32101250 662.73115158 0 -1 3 
366 8 2 1.00000000 128.19999695 21.08574295 -222.19420147 660.52039337 0 -1 3 
367 8 1 -1.00000000 129.10000610 24.21943092 -222.68338013 658.43661499 0 -1 3 
368 8 1 -1.00000000 129.10000610 24.66598892 -219.02242661 656.46498108 0 -1 3 