ITEM: TIMESTEP
41750000 
ITEM: NUMBER OF ATOMS 
25000 
ITEM: BOX BOUNDS pp pp pp 
-103.678017 103.678017 
-103.678017 103.678017 
-103.678017 103.678017 
ITEM: ATOMS id mol type q mass xu yu zu ix iy iz 
1 1 2 1.00000000 128.19999695 462.66448975 -31.02648735 -200.45438099 2 0 -1 
2 1 1 -1.00000000 129.10000610 464.78709030 -30.50151443 -203.74338555 2 0 -1 
3 1 2 1.00000000 128.19999695 468.48828888 -31.79764366 -204.43345261 2 0 -1 
4 1 2 1.00000000 128.19999695 469.95632553 -34.94069672 -205.92151201 2 0 -1 
5 1 2 1.00000000 128.19999695 469.80376816 -38.34918976 -204.53882742 2 0 -1 
6 1 1 -1.00000000 129.10000610 469.61274719 -40.60779953 -207.44636643 2 0 -1 
7 1 2 1.00000000 128.19999695 467.42297363 -42.22192001 -209.99775600 2 0 -1 
8 1 1 -1.00000000 129.10000610 465.62666321 -40.12732697 -211.99904680 2 0 -1 
9 1 1 -1.00000000 129.10000610 463.28657150 -38.19993973 -209.41656208 2 0 -1 
10 1 1 -1.00000000 129.10000610 460.86281967 -35.55298615 -208.44126832 2 0 -1 
11 1 2 1.00000000 128.19999695 457.15500641 -35.29063416 -207.46823183 2 0 -1 
12 1 1 -1.00000000 129.10000610 454.52882385 -31.91743660 -208.17651564 2 0 -1 
13 1 1 -1.00000000 129.10000610 456.64853668 -30.99987411 -211.07822943 2 0 -1 
14 1 1 -1.00000000 129.10000610 457.68795013 -32.58259964 -214.53602934 2 0 -1 
15 1 2 1.00000000 128.19999695 460.11642456 -30.07337379 -215.99883556 2 0 -1 
16 1 2 1.00000000 128.19999695 463.58956528 -28.32320404 -215.12046432 2 0 -1 
17 1 1 -1.00000000 129.10000610 466.71793747 -29.92528915 -213.58328533 2 0 -1 
18 1 1 -1.00000000 129.10000610 468.67300034 -28.50604439 -210.40806627 2 0 -1 
19 1 2 1.00000000 128.19999695 472.00167465 -27.50903893 -209.28024304 2 0 -1 
20 1 1 -1.00000000 129.10000610 473.87485886 -27.15048409 -205.95829940 2 0 -1 
21 1 1 -1.00000000 129.10000610 472.79656219 -23.88576698 -204.31336904 2 0 -1 
22 1 1 -1.00000000 129.10000610 469.12231827 -24.02448082 -204.14963388 2 0 -1 
23 1 2 1.00000000 128.19999695 465.45552063 -23.77339745 -204.43866229 2 0 -1 
24 1 1 -1.00000000 129.10000610 461.60498047 -24.57426262 -203.45371127 2 0 -1 
25 1 1 -1.00000000 129.10000610 458.67609024 -25.05243874 -205.70114970 2 0 -1 
26 1 2 1.00000000 128.19999695 457.95539093 -23.98742867 -209.15000296 2 0 -1 
27 1 2 1.00000000 128.19999695 456.26025772 -23.46108818 -212.57442331 2 0 -1 
28 1 2 1.00000000 128.19999695 453.99079514 -23.37001228 -215.48865318 2 0 -1 
29 1 2 1.00000000 128.19999695 452.42621994 -22.96450996 -218.86225510 2 0 -1 
30 1 2 1.00000000 128.19999695 449.20607376 -23.16165924 -220.67020130 2 0 -1 
31 1 1 -1.00000000 129.10000610 447.61676788 -23.07089806 -224.45817757 2 0 -1 
32 1 1 -1.00000000 129.10000610 444.20688438 -22.45958710 -225.49297142 2 0 -1 
33 1 1 -1.00000000 129.10000610 441.21979332 -22.14045334 -227.67192459 2 0 -1 
34 1 2 1.00000000 128.19999695 440.53832054 -24.75578308 -230.54030228 2 0 -1 
35 1 2 1.00000000 128.19999695 442.57994461 -25.51636505 -233.39571381 2 0 -1 
36 1 2 1.00000000 128.19999695 445.00801659 -24.97344971 -236.36569023 2 0 -1 
37 1 1 -1.00000000 129.10000610 447.55480194 -23.89462471 -238.93836021 2 0 -1 
38 1 2 1.00000000 128.19999695 451.22804260 -23.45832443 -238.79373741 2 0 -1 
39 1 1 -1.00000000 129.10000610 453.78409195 -25.56792831 -238.11007309 2 0 -1 
40 1 1 -1.00000000 129.10000610 456.67552567 -26.53784180 -240.40867996 2 0 -1 
41 1 1 -1.00000000 129.10000610 459.24546814 -27.71281242 -242.83673477 2 0 -1 
42 1 2 1.00000000 128.19999695 461.00863647 -27.36846924 -246.26655960 2 0 -1 
43 1 1 -1.00000000 129.10000610 459.35615921 -29.02887726 -249.23960495 2 0 -1 
44 1 2 1.00000000 128.19999695 457.05462265 -30.41629791 -251.26360321 2 0 -1 
45 1 2 1.00000000 128.19999695 456.71405792 -33.91287613 -249.34001160 2 0 -1 
46 1 2 1.00000000 128.19999695 457.79179382 -36.97027969 -250.91677475 2 0 -1 
47 1 1 -1.00000000 129.10000610 458.75920105 -38.71247482 -254.11753845 2 0 -1 
48 1 2 1.00000000 128.19999695 456.76132202 -40.13364410 -257.00017166 2 0 -1 
49 1 1 -1.00000000 129.10000610 453.28170013 -39.55876923 -258.83523941 2 0 -1 
50 1 2 1.00000000 128.19999695 451.68566513 -39.92204666 -262.27698898 2 0 -1 
51 2 2 1.00000000 128.19999695 450.62008667 367.18700790 -328.76823425 2 2 -2 
52 2 1 -1.00000000 129.10000610 451.82949066 369.91289139 -326.54952240 2 2 -2 
53 2 2 1.00000000 128.19999695 453.74341583 372.39088821 -324.05888367 2 2 -2 
54 2 2 1.00000000 128.19999695 452.97400284 375.32041168 -321.51934052 2 2 -2 
55 2 2 1.00000000 128.19999695 450.31444550 375.66017151 -318.77938080 2 2 -2 
56 2 1 -1.00000000 129.10000610 451.95003510 375.72206116 -315.38655853 2 2 -2 
57 2 2 1.00000000 128.19999695 454.25062180 375.40946198 -312.15324402 2 2 -2 
58 2 1 -1.00000000 129.10000610 453.14079285 372.19709396 -309.79109955 2 2 -1 
59 2 1 -1.00000000 129.10000610 449.67690659 371.96968842 -307.81311035 2 2 -1 
60 2 1 -1.00000000 129.10000610 448.11548996 369.02569580 -310.11773682 2 2 -1 
61 2 2 1.00000000 128.19999695 445.02843285 368.90478897 -308.41886139 2 2 -1 
62 2 1 -1.00000000 129.10000610 441.93254089 367.72666168 -306.79243469 2 2 -1 
63 2 1 -1.00000000 129.10000610 442.28100395 364.67964172 -304.26779175 2 2 -1 
64 2 1 -1.00000000 129.10000610 439.11241531 362.97047424 -303.43347931 2 2 -1 
65 2 2 1.00000000 128.19999695 436.19297981 363.57235718 -300.89642334 2 2 -1 
66 2 2 1.00000000 128.19999695 433.42370605 360.88962173 -301.47039032 2 2 -1 
67 2 1 -1.00000000 129.10000610 432.17988014 357.15692520 -301.91094208 2 2 -1 
68 2 1 -1.00000000 129.10000610 429.60526752 354.36442184 -300.93190002 2 2 -1 
69 2 2 1.00000000 128.19999695 428.29170513 355.63712692 -297.49473572 2 2 -1 
70 2 1 -1.00000000 129.10000610 427.33673382 353.27504730 -294.65294647 2 2 -1 
71 2 1 -1.00000000 129.10000610 424.33493614 354.20278168 -292.58650208 2 2 -1 
72 2 1 -1.00000000 129.10000610 423.54918098 357.62934494 -291.01052856 2 2 -1 
73 2 2 1.00000000 128.19999695 425.56447029 359.92447281 -288.60634613 2 2 -1 
74 2 1 -1.00000000 129.10000610 427.95205975 362.35166550 -290.41304779 2 2 -1 
75 2 1 -1.00000000 129.10000610 431.63690758 362.09178925 -290.91218567 2 2 -1 
76 2 2 1.00000000 128.19999695 433.76881027 360.60567093 -293.83547211 2 2 -1 
77 2 2 1.00000000 128.19999695 436.62750626 359.55269241 -296.00341797 2 2 -1 
78 2 2 1.00000000 128.19999695 437.21093941 356.15282440 -297.30438995 2 2 -1 
79 2 2 1.00000000 128.19999695 437.73325920 352.72562790 -299.05261230 2 2 -1 
80 2 2 1.00000000 128.19999695 436.02983665 349.51085663 -300.31428528 2 2 -1 
81 2 1 -1.00000000 129.10000610 437.00935364 348.70063019 -303.78565979 2 2 -1 
82 2 1 -1.00000000 129.10000610 437.43862343 347.90740204 -307.35435486 2 2 -1 
83 2 1 -1.00000000 129.10000610 436.73169708 349.22341919 -310.82835388 2 2 -1 
84 2 2 1.00000000 128.19999695 439.14619637 348.24363708 -313.71058655 2 2 -2 
85 2 2 1.00000000 128.19999695 440.84273529 350.78659439 -316.13887024 2 2 -2 
86 2 2 1.00000000 128.19999695 439.15014839 351.22694016 -319.42655945 2 2 -2 
87 2 1 -1.00000000 129.10000610 441.00769234 349.74066925 -322.50827026 2 2 -2 
88 2 2 1.00000000 128.19999695 441.65630150 346.35025787 -322.91870880 2 2 -2 
89 2 1 -1.00000000 129.10000610 439.22955894 343.29599762 -322.76510620 2 2 -2 
90 2 1 -1.00000000 129.10000610 437.08510017 343.32741547 -326.16799927 2 2 -2 
91 2 1 -1.00000000 129.10000610 436.28158188 342.97354126 -329.92204285 2 2 -2 
92 2 2 1.00000000 128.19999695 432.78078461 345.09688568 -330.35580444 2 2 -2 
93 2 1 -1.00000000 129.10000610 428.90317535 346.30159760 -329.82209015 2 2 -2 
94 2 2 1.00000000 128.19999695 425.47784710 346.05922699 -328.86720276 2 2 -2 
95 2 2 1.00000000 128.19999695 424.78072548 346.02000427 -325.17691803 2 2 -2 
96 2 2 1.00000000 128.19999695 424.20884609 347.12010193 -321.33145905 2 2 -2 
97 2 1 -1.00000000 129.10000610 427.29164124 349.42105103 -320.42124939 2 2 -2 
98 2 2 1.00000000 128.19999695 430.36461449 348.62133026 -318.56032562 2 2 -2 
99 2 1 -1.00000000 129.10000610 430.00916290 344.91381836 -317.49622345 2 2 -2 
100 2 2 1.00000000 128.19999695 429.87989712 341.48551178 -318.89686584 2 2 -2 
101 3 2 1.00000000 128.19999695 275.37397003 -91.53947449 97.78713989 1 0 0 
102 3 1 -1.00000000 129.10000610 275.28248596 -93.28752136 94.11590576 1 0 0 
103 3 2 1.00000000 128.19999695 275.74946594 -90.57482910 91.52790833 1 0 0 
104 3 2 1.00000000 128.19999695 274.28917694 -87.18918610 91.38739014 1 0 0 
105 3 2 1.00000000 128.19999695 270.47264481 -87.26176453 91.42517853 1 0 0 
106 3 1 -1.00000000 129.10000610 268.25909042 -86.60050201 88.07945251 1 0 0 
107 3 2 1.00000000 128.19999695 266.18767166 -89.97616577 86.79170227 1 0 0 
108 3 1 -1.00000000 129.10000610 266.44825745 -90.69087219 83.11463165 1 0 0 
109 3 1 -1.00000000 129.10000610 269.26739502 -89.46768188 81.11403656 1 0 0 
110 3 1 -1.00000000 129.10000610 270.30373764 -86.31242371 79.41089630 1 0 0 
111 3 2 1.00000000 128.19999695 271.77848053 -83.93463135 81.89272308 1 0 0 
112 3 1 -1.00000000 129.10000610 273.61343384 -84.88655090 85.19591522 1 0 0 
113 3 1 -1.00000000 129.10000610 277.69184113 -85.59851837 85.14731598 1 0 0 
114 3 1 -1.00000000 129.10000610 280.93623352 -86.77453613 86.84720612 1 0 0 
115 3 2 1.00000000 128.19999695 281.91252136 -85.00616455 89.99996185 1 0 0 
116 3 2 1.00000000 128.19999695 285.58994293 -85.69518280 91.44860077 1 0 0 
117 3 1 -1.00000000 129.10000610 285.21115875 -85.45267487 95.08747864 1 0 0 
118 3 1 -1.00000000 129.10000610 283.93547058 -88.09503937 97.33025360 1 0 0 
119 3 2 1.00000000 128.19999695 286.19029236 -91.15661621 98.25936890 1 0 0 
120 3 1 -1.00000000 129.10000610 289.91860962 -90.82519531 100.05152130 1 0 0 
121 3 1 -1.00000000 129.10000610 292.54076385 -93.65983582 100.07336426 1 0 0 
122 3 1 -1.00000000 129.10000610 295.24029541 -95.95977783 100.55759430 1 0 0 
123 3 2 1.00000000 128.19999695 297.76884460 -98.58737183 101.96277618 1 0 0 
124 3 1 -1.00000000 129.10000610 299.28009033 -101.70436096 102.30935669 1 0 0 
125 3 1 -1.00000000 129.10000610 298.59280396 -105.25572205 100.80751801 1 -1 0 
126 3 2 1.00000000 128.19999695 295.51599121 -107.08336639 102.45046997 1 -1 0 
127 3 2 1.00000000 128.19999695 295.37775421 -110.43536377 104.16870117 1 -1 1 
128 3 2 1.00000000 128.19999695 295.02845764 -110.09524536 107.85918427 1 -1 1 
129 3 2 1.00000000 128.19999695 293.84506226 -110.49131775 111.54061890 1 -1 1 
130 3 2 1.00000000 128.19999695 292.67466736 -110.49968719 114.92859650 1 -1 1 
131 3 1 -1.00000000 129.10000610 290.51800537 -112.31638336 117.35534668 1 -1 1 
132 3 1 -1.00000000 129.10000610 289.66938782 -115.83185577 117.53253174 1 -1 1 
133 3 1 -1.00000000 129.10000610 290.70567322 -118.73973846 115.33584595 1 -1 1 
134 3 2 1.00000000 128.19999695 292.43434906 -122.31079102 115.11132812 1 -1 1 
135 3 2 1.00000000 128.19999695 292.69828033 -124.39900970 112.29454803 1 -1 1 
136 3 2 1.00000000 128.19999695 292.88252258 -125.21099854 108.67563629 1 -1 1 
137 3 1 -1.00000000 129.10000610 292.20104218 -127.24233246 105.63484192 1 -1 1 
138 3 2 1.00000000 128.19999695 291.42856598 -128.64963531 102.16712952 1 -1 0 
139 3 1 -1.00000000 129.10000610 291.56645203 -126.38027191 99.27172852 1 -1 0 
140 3 1 -1.00000000 129.10000610 292.94323730 -128.66493988 96.49452209 1 -1 0 
141 3 1 -1.00000000 129.10000610 293.81954956 -132.07495880 96.80688477 1 -1 0 
142 3 2 1.00000000 128.19999695 295.49946594 -134.84649658 94.85595703 1 -1 0 
143 3 1 -1.00000000 129.10000610 294.88848877 -136.22453308 91.01668549 1 -1 0 
144 3 2 1.00000000 128.19999695 293.39142609 -133.70212555 88.31871033 1 -1 0 
145 3 2 1.00000000 128.19999695 292.80503845 -132.38349915 84.90679169 1 -1 0 
146 3 2 1.00000000 128.19999695 295.42398071 -130.19625854 83.49410248 1 -1 0 
147 3 1 -1.00000000 129.10000610 296.63503265 -126.67977905 81.71496582 1 -1 0 
148 3 2 1.00000000 128.19999695 299.98339844 -127.64495087 80.65454865 1 -1 0 
149 3 1 -1.00000000 129.10000610 302.13276672 -126.71695709 77.64115906 1 -1 0 
150 3 2 1.00000000 128.19999695 301.07847595 -125.54815674 74.27803040 1 -1 0 
151 4 2 1.00000000 128.19999695 -204.32496119 359.16002655 42.62530899 -1 2 0 
152 4 1 -1.00000000 129.10000610 -205.76683664 362.75023270 42.54327393 -1 2 0 
153 4 2 1.00000000 128.19999695 -207.17099260 364.17568588 39.34384537 -1 2 0 
154 4 2 1.00000000 128.19999695 -205.16474414 367.12217331 37.51964569 -1 2 0 
155 4 2 1.00000000 128.19999695 -202.23279715 368.87154770 39.67170334 -1 2 0 
156 4 1 -1.00000000 129.10000610 -199.30235386 370.31177521 37.41156387 -1 2 0 
157 4 2 1.00000000 128.19999695 -197.30493069 369.49428940 34.38030624 -1 2 0 
158 4 1 -1.00000000 129.10000610 -198.19089603 367.08722687 31.66523361 -1 2 0 
159 4 1 -1.00000000 129.10000610 -195.73172665 364.10409164 32.33473206 -1 2 0 
160 4 1 -1.00000000 129.10000610 -196.18943977 361.04469681 34.48331833 -1 2 0 
161 4 2 1.00000000 128.19999695 -195.78184509 362.14646530 38.25601959 -1 2 0 
162 4 1 -1.00000000 129.10000610 -198.19350624 360.26188660 40.57753372 -1 2 0 
163 4 1 -1.00000000 129.10000610 -198.58235550 362.18779755 43.83615875 -1 2 0 
164 4 1 -1.00000000 129.10000610 -200.33649302 361.13364792 47.36906433 -1 2 0 
165 4 2 1.00000000 128.19999695 -199.18608952 358.57390213 50.20149612 -1 2 0 
166 4 2 1.00000000 128.19999695 -198.31063271 354.60315323 49.62134933 -1 2 0 
167 4 1 -1.00000000 129.10000610 -201.15988874 352.34720993 51.11656570 -1 2 0 
168 4 1 -1.00000000 129.10000610 -203.84854269 352.78519058 53.34092712 -1 2 0 
169 4 2 1.00000000 128.19999695 -204.72294164 356.21335220 54.22988892 -1 2 0 
170 4 1 -1.00000000 129.10000610 -207.76145998 357.86749649 53.76914597 -1 2 0 
171 4 1 -1.00000000 129.10000610 -210.96874738 359.03416061 51.97381592 -1 2 0 
172 4 1 -1.00000000 129.10000610 -211.90100431 361.20160294 48.88649368 -1 2 0 
173 4 2 1.00000000 128.19999695 -210.68585992 363.83255386 46.47473907 -1 2 0 
174 4 1 -1.00000000 129.10000610 -207.68487319 365.66429138 48.24227524 -1 2 0 
175 4 1 -1.00000000 129.10000610 -209.37838578 365.68630981 51.76222610 -1 2 0 
176 4 2 1.00000000 128.19999695 -211.87209654 368.48431778 52.28111267 -1 2 0 
177 4 2 1.00000000 128.19999695 -215.62012291 368.47404099 50.70845795 -1 2 0 
178 4 2 1.00000000 128.19999695 -216.98161411 368.22179413 47.13101959 -1 2 0 
179 4 2 1.00000000 128.19999695 -218.40095711 367.33564377 43.50619125 -1 2 0 
180 4 2 1.00000000 128.19999695 -222.12206936 366.86040878 43.38165283 -1 2 0 
181 4 1 -1.00000000 129.10000610 -224.42324638 369.01922607 45.15647888 -1 2 0 
182 4 1 -1.00000000 129.10000610 -225.55282402 371.22256470 47.95713425 -1 2 0 
183 4 1 -1.00000000 129.10000610 -224.79925728 374.55861282 49.63379288 -1 2 0 
184 4 2 1.00000000 128.19999695 -223.07765770 377.06899261 47.64245605 -1 2 0 
185 4 2 1.00000000 128.19999695 -221.38336277 378.19460297 44.38927078 -1 2 0 
186 4 2 1.00000000 128.19999695 -219.40639687 380.95571518 42.57331467 -1 2 0 
187 4 1 -1.00000000 129.10000610 -217.37426090 381.46807480 39.13381577 -1 2 0 
188 4 2 1.00000000 128.19999695 -219.51455593 382.50741577 36.31734085 -1 2 0 
189 4 1 -1.00000000 129.10000610 -216.49023628 383.27747917 33.74995804 -1 2 0 
190 4 1 -1.00000000 129.10000610 -214.56976509 384.11555290 30.47794724 -1 2 0 
191 4 1 -1.00000000 129.10000610 -212.44015265 387.45443153 30.32867050 -1 2 0 
192 4 2 1.00000000 128.19999695 -214.74307108 389.97341728 27.95863724 -1 2 0 
193 4 1 -1.00000000 129.10000610 -217.34966278 392.37502098 28.06264877 -1 2 0 
194 4 2 1.00000000 128.19999695 -220.58564091 394.14898872 28.63937759 -1 2 0 
195 4 2 1.00000000 128.19999695 -224.09800339 394.50320816 30.52486610 -1 2 0 
196 4 2 1.00000000 128.19999695 -223.51589775 393.23913002 34.29767227 -1 2 0 
197 4 1 -1.00000000 129.10000610 -223.25767899 389.25973701 33.60080719 -1 2 0 
198 4 2 1.00000000 128.19999695 -224.78254509 385.82280540 33.92895508 -1 2 0 
199 4 1 -1.00000000 129.10000610 -224.52265358 383.06369781 31.06266594 -1 2 0 
200 4 2 1.00000000 128.19999695 -223.54853821 380.07762146 29.03648376 -1 2 0 
201 5 2 1.00000000 128.19999695 -300.76502228 -258.12716293 -238.78022385 -1 -1 -1 
202 5 1 -1.00000000 129.10000610 -301.07482910 -256.27114105 -241.89369202 -1 -1 -1 
203 5 2 1.00000000 128.19999695 -301.70880127 -252.82967377 -243.42973709 -1 -1 -1 
204 5 2 1.00000000 128.19999695 -304.18820190 -253.03146744 -246.25344467 -1 -1 -1 
205 5 2 1.00000000 128.19999695 -306.50733185 -250.40619278 -247.64013672 -1 -1 -1 
206 5 1 -1.00000000 129.10000610 -305.30264282 -247.28620529 -245.79650497 -1 -1 -1 
207 5 2 1.00000000 128.19999695 -305.42115784 -243.60772324 -245.22473526 -1 -1 -1 
208 5 1 -1.00000000 129.10000610 -301.86602020 -242.76577759 -244.42712021 -1 -1 -1 
209 5 1 -1.00000000 129.10000610 -298.97661591 -245.20202255 -245.83735275 -1 -1 -1 
210 5 1 -1.00000000 129.10000610 -299.31394958 -246.03934479 -249.74490356 -1 -1 -1 
211 5 2 1.00000000 128.19999695 -301.69851685 -244.66777420 -252.09092712 -1 -1 -1 
212 5 1 -1.00000000 129.10000610 -304.60934448 -243.72055817 -253.86570740 -1 -1 -1 
213 5 1 -1.00000000 129.10000610 -307.18119812 -245.84826279 -255.30801392 -1 -1 -1 
214 5 1 -1.00000000 129.10000610 -306.21514130 -249.47344589 -255.59595871 -1 -1 -1 
215 5 2 1.00000000 128.19999695 -306.03874969 -252.84725952 -258.07704926 -1 -1 -1 
216 5 2 1.00000000 128.19999695 -305.20750427 -254.51018143 -261.16516876 -1 -1 -1 
217 5 1 -1.00000000 129.10000610 -305.03015900 -258.58032227 -260.62879944 -1 -1 -1 
218 5 1 -1.00000000 129.10000610 -304.50911713 -260.39484406 -263.68415451 -1 -1 -1 
219 5 2 1.00000000 128.19999695 -307.25464630 -262.27228928 -265.31011200 -1 -1 -1 
220 5 1 -1.00000000 129.10000610 -308.60839844 -259.93535233 -268.58759308 -1 -1 -1 
221 5 1 -1.00000000 129.10000610 -305.21568298 -257.80752945 -269.82385635 -1 -1 -1 
222 5 1 -1.00000000 129.10000610 -302.95114136 -257.51385117 -273.32745361 -1 -1 -1 
223 5 2 1.00000000 128.19999695 -299.78359222 -259.10883713 -273.78765106 -1 -1 -1 
224 5 1 -1.00000000 129.10000610 -297.85095978 -259.44222260 -270.47451782 -1 -1 -1 
225 5 1 -1.00000000 129.10000610 -294.03235626 -260.23155212 -270.28737259 -1 -1 -1 
226 5 2 1.00000000 128.19999695 -290.76287842 -261.69078064 -271.69909668 -1 -1 -1 
227 5 2 1.00000000 128.19999695 -290.36867523 -261.78512573 -275.58724976 -1 -1 -1 
228 5 2 1.00000000 128.19999695 -291.36309814 -265.32489014 -276.98432159 -1 -1 -1 
229 5 2 1.00000000 128.19999695 -291.60148621 -269.29024887 -277.21775818 -1 -1 -1 
230 5 2 1.00000000 128.19999695 -290.57045746 -272.70175171 -278.49451447 -1 -1 -1 
231 5 1 -1.00000000 129.10000610 -292.41976166 -275.87258148 -280.19973755 -1 -1 -1 
232 5 1 -1.00000000 129.10000610 -293.06444550 -274.25615692 -283.89801025 -1 -1 -1 
233 5 1 -1.00000000 129.10000610 -295.19762421 -272.10696411 -286.53826904 -1 -1 -1 
234 5 2 1.00000000 128.19999695 -292.67396545 -269.61858749 -287.68457031 -1 -1 -1 
235 5 2 1.00000000 128.19999695 -290.77593231 -266.43038940 -288.24848938 -1 -1 -1 
236 5 2 1.00000000 128.19999695 -287.96309662 -263.92856979 -287.83400726 -1 -1 -1 
237 5 1 -1.00000000 129.10000610 -287.39755249 -260.53611374 -289.17489624 -1 -1 -1 
238 5 2 1.00000000 128.19999695 -286.48547363 -258.02959442 -286.37889862 -1 -1 -1 
239 5 1 -1.00000000 129.10000610 -287.24754333 -260.21090698 -283.27922058 -1 -1 -1 
240 5 1 -1.00000000 129.10000610 -286.46260834 -259.49593735 -279.69841003 -1 -1 -1 
241 5 1 -1.00000000 129.10000610 -288.20480347 -256.25860977 -278.89398956 -1 -1 -1 
242 5 2 1.00000000 128.19999695 -292.20018768 -255.99137115 -278.89426422 -1 -1 -1 
243 5 1 -1.00000000 129.10000610 -293.06211853 -252.53390503 -277.33536530 -1 -1 -1 
244 5 2 1.00000000 128.19999695 -296.27682495 -250.57481384 -276.14936066 -1 -1 -1 
245 5 2 1.00000000 128.19999695 -297.57109070 -251.97624969 -273.16883087 -1 -1 -1 
246 5 2 1.00000000 128.19999695 -299.40518951 -251.47804642 -270.06016922 -1 -1 -1 
247 5 1 -1.00000000 129.10000610 -300.96588135 -250.87569427 -266.74496841 -1 -1 -1 
248 5 2 1.00000000 128.19999695 -299.28250122 -251.20602036 -263.46353912 -1 -1 -1 
249 5 1 -1.00000000 129.10000610 -300.85710144 -248.12099838 -261.49901581 -1 -1 -1 
250 5 2 1.00000000 128.19999695 -304.32707977 -247.27257156 -262.88665009 -1 -1 -1 
251 6 2 1.00000000 128.19999695 402.26359463 -370.13570023 -45.21930695 2 -2 0 
252 6 1 -1.00000000 129.10000610 402.88382435 -369.88229752 -48.91810989 2 -2 0 
253 6 2 1.00000000 128.19999695 405.08635235 -368.02723312 -51.15105438 2 -2 0 
254 6 2 1.00000000 128.19999695 408.28567696 -366.25098419 -49.95445251 2 -2 0 
255 6 2 1.00000000 128.19999695 410.63407373 -364.83020020 -52.66337967 2 -2 0 
256 6 1 -1.00000000 129.10000610 410.32754660 -367.79744339 -55.20151901 2 -2 0 
257 6 2 1.00000000 128.19999695 414.07119167 -369.44807053 -54.95964050 2 -2 0 
258 6 1 -1.00000000 129.10000610 413.80481672 -371.48863983 -58.28231812 2 -2 0 
259 6 1 -1.00000000 129.10000610 413.85624677 -372.03125381 -61.94404602 2 -2 0 
260 6 1 -1.00000000 129.10000610 417.21012807 -371.48736191 -63.58866119 2 -2 0 
261 6 2 1.00000000 128.19999695 419.74302292 -369.13097382 -65.40688324 2 -2 0 
262 6 1 -1.00000000 129.10000610 422.20024204 -366.56297302 -67.33177185 2 -2 0 
263 6 1 -1.00000000 129.10000610 422.10303259 -363.38280106 -65.36931610 2 -2 0 
264 6 1 -1.00000000 129.10000610 418.82891321 -362.50039291 -63.70692062 2 -2 0 
265 6 2 1.00000000 128.19999695 417.18524098 -359.38614655 -62.24645615 2 -2 0 
266 6 2 1.00000000 128.19999695 415.40516871 -355.89714432 -62.14616013 2 -2 0 
267 6 1 -1.00000000 129.10000610 416.11928666 -354.64693832 -58.10157013 2 -2 0 
268 6 1 -1.00000000 129.10000610 413.73222554 -356.14401627 -55.76670074 2 -2 0 
269 6 2 1.00000000 128.19999695 410.80534911 -359.13955688 -56.60216522 2 -2 0 
270 6 1 -1.00000000 129.10000610 407.83338928 -361.42236710 -56.34792328 2 -2 0 
271 6 1 -1.00000000 129.10000610 404.87228680 -362.40077209 -58.64994431 2 -2 0 
272 6 1 -1.00000000 129.10000610 401.37627697 -362.70647049 -57.92317963 2 -2 0 
273 6 2 1.00000000 128.19999695 398.67009926 -361.69496536 -60.19548416 2 -2 0 
274 6 1 -1.00000000 129.10000610 396.26999092 -362.95719910 -63.40586090 2 -2 0 
275 6 1 -1.00000000 129.10000610 396.33848190 -360.77926636 -66.44554901 2 -2 0 
276 6 2 1.00000000 128.19999695 395.17584801 -357.19919586 -66.91300201 2 -2 0 
277 6 2 1.00000000 128.19999695 395.64752007 -355.42942429 -63.54128647 2 -2 0 
278 6 2 1.00000000 128.19999695 399.33677101 -355.05193710 -61.75120926 2 -2 0 
279 6 2 1.00000000 128.19999695 398.55205727 -355.03166199 -57.81608582 2 -2 0 
280 6 2 1.00000000 128.19999695 397.13891792 -353.13140106 -54.59288788 2 -2 0 
281 6 1 -1.00000000 129.10000610 395.35360718 -355.20545197 -51.68493652 2 -2 0 
282 6 1 -1.00000000 129.10000610 395.15041924 -358.89854050 -53.86613464 2 -2 0 
283 6 1 -1.00000000 129.10000610 392.68791771 -359.17949295 -56.87707138 2 -2 0 
284 6 2 1.00000000 128.19999695 389.58545494 -360.15650940 -55.02080154 2 -2 0 
285 6 2 1.00000000 128.19999695 386.23838615 -358.13679504 -54.43959808 2 -2 0 
286 6 2 1.00000000 128.19999695 383.23904037 -356.34471130 -52.34016418 2 -2 0 
287 6 1 -1.00000000 129.10000610 379.49628448 -355.30875397 -52.86089325 2 -2 0 
288 6 2 1.00000000 128.19999695 375.70268250 -354.64202881 -51.90021896 2 -2 0 
289 6 1 -1.00000000 129.10000610 373.13571548 -357.33482361 -52.22460556 2 -2 0 
290 6 1 -1.00000000 129.10000610 369.54573441 -357.90270996 -52.47035980 2 -2 0 
291 6 1 -1.00000000 129.10000610 369.92807388 -361.77431488 -51.91571426 2 -2 0 
292 6 2 1.00000000 128.19999695 368.98288345 -363.18658066 -48.43909836 2 -2 0 
293 6 1 -1.00000000 129.10000610 366.08511734 -365.94055939 -47.39129639 2 -2 0 
294 6 2 1.00000000 128.19999695 364.72225571 -366.09395218 -43.73037338 2 -2 0 
295 6 2 1.00000000 128.19999695 363.51325226 -365.49488449 -39.85160828 2 -2 0 
296 6 2 1.00000000 128.19999695 361.79066467 -363.75829315 -36.60792542 2 -2 0 
297 6 1 -1.00000000 129.10000610 358.40470886 -362.97938919 -38.35893250 2 -2 0 
298 6 2 1.00000000 128.19999695 357.59632111 -359.55826569 -39.69124603 2 -2 0 
299 6 1 -1.00000000 129.10000610 360.52991104 -357.95807266 -41.80384827 2 -2 0 
300 6 2 1.00000000 128.19999695 363.84843826 -359.18165970 -42.53660583 2 -2 0 
301 7 2 1.00000000 128.19999695 -84.93907928 -31.95026970 -889.45588684 0 0 -4 
302 7 1 -1.00000000 129.10000610 -85.52828217 -33.63689041 -892.66183090 0 0 -4 
303 7 2 1.00000000 128.19999695 -82.94488525 -36.19348145 -893.45978546 0 0 -4 
304 7 2 1.00000000 128.19999695 -78.86936188 -36.98376465 -893.95498657 0 0 -4 
305 7 2 1.00000000 128.19999695 -77.14375305 -36.82197952 -890.45355606 0 0 -4 
306 7 1 -1.00000000 129.10000610 -74.06247711 -35.27843857 -891.12514496 0 0 -4 
307 7 2 1.00000000 128.19999695 -70.88861084 -32.94646454 -890.18658829 0 0 -4 
308 7 1 -1.00000000 129.10000610 -67.03942871 -33.73062897 -889.70766449 0 0 -4 
309 7 1 -1.00000000 129.10000610 -63.65185547 -35.22162628 -888.58987808 0 0 -4 
310 7 1 -1.00000000 129.10000610 -61.32380295 -32.84740829 -886.81896210 0 0 -4 
311 7 2 1.00000000 128.19999695 -57.84811020 -31.39949608 -887.08716583 0 0 -4 
312 7 1 -1.00000000 129.10000610 -57.59476852 -28.49920273 -889.87616348 0 0 -4 
313 7 1 -1.00000000 129.10000610 -56.35819626 -25.36502075 -891.53978729 0 0 -4 
314 7 1 -1.00000000 129.10000610 -55.05510712 -22.24993324 -893.58629608 0 0 -4 
315 7 2 1.00000000 128.19999695 -55.03266144 -18.29155731 -894.19792175 0 0 -4 
316 7 2 1.00000000 128.19999695 -57.42835999 -16.07520485 -896.21872711 0 0 -4 
317 7 1 -1.00000000 129.10000610 -57.52123642 -14.21363735 -899.65680695 0 0 -4 
318 7 1 -1.00000000 129.10000610 -57.26510239 -10.78970718 -901.17207336 0 0 -4 
319 7 2 1.00000000 128.19999695 -58.01471710 -6.91518831 -901.05905151 0 0 -4 
320 7 1 -1.00000000 129.10000610 -57.35142136 -5.66195679 -897.40539551 0 0 -4 
321 7 1 -1.00000000 129.10000610 -58.85857391 -2.18789268 -897.49257660 0 0 -4 
322 7 1 -1.00000000 129.10000610 -62.74546432 -2.05077386 -897.62698364 0 0 -4 
323 7 2 1.00000000 128.19999695 -64.79903412 -1.75481999 -894.33391571 0 0 -4 
324 7 1 -1.00000000 129.10000610 -64.85241699 2.11608434 -893.81751251 0 0 -4 
325 7 1 -1.00000000 129.10000610 -63.69257355 3.79914451 -897.16086578 0 0 -4 
326 7 2 1.00000000 128.19999695 -63.64704132 3.68403649 -900.75081635 0 0 -4 
327 7 2 1.00000000 128.19999695 -66.17319489 1.23213983 -902.24653625 0 0 -4 
328 7 2 1.00000000 128.19999695 -67.10381317 1.51000667 -906.11270142 0 0 -4 
329 7 2 1.00000000 128.19999695 -67.06626129 2.54984021 -909.51238251 0 0 -4 
330 7 2 1.00000000 128.19999695 -66.06114197 0.04007041 -912.29575348 0 0 -4 
331 7 1 -1.00000000 129.10000610 -62.17103577 -0.97982115 -913.15489197 0 0 -4 
332 7 1 -1.00000000 129.10000610 -58.86852646 -2.36216569 -913.28292847 0 0 -4 
333 7 1 -1.00000000 129.10000610 -56.55834961 -4.62930059 -914.74594116 0 0 -4 
334 7 2 1.00000000 128.19999695 -54.36936951 -7.39395475 -915.65574646 0 0 -4 
335 7 2 1.00000000 128.19999695 -50.87877655 -6.76434660 -914.26291656 0 0 -4 
336 7 2 1.00000000 128.19999695 -49.83883667 -3.08399940 -913.67225647 0 0 -4 
337 7 1 -1.00000000 129.10000610 -51.16465759 0.25871611 -915.53031158 0 0 -4 
338 7 2 1.00000000 128.19999695 -51.70009613 3.01776195 -913.16683197 0 0 -4 
339 7 1 -1.00000000 129.10000610 -50.88738251 6.76203632 -913.12294006 0 0 -4 
340 7 1 -1.00000000 129.10000610 -52.68573761 10.37152767 -913.67833710 0 0 -4 
341 7 1 -1.00000000 129.10000610 -54.60919571 12.76193428 -911.39719391 0 0 -4 
342 7 2 1.00000000 128.19999695 -55.23734665 14.78953171 -908.37387085 0 0 -4 
343 7 1 -1.00000000 129.10000610 -55.79111099 14.58899879 -904.78517914 0 0 -4 
344 7 2 1.00000000 128.19999695 -55.86596298 17.16083336 -901.87476349 0 0 -4 
345 7 2 1.00000000 128.19999695 -52.09330750 17.29037666 -900.55985260 0 0 -4 
346 7 2 1.00000000 128.19999695 -50.98347092 18.36688232 -896.85962677 0 0 -4 
347 7 1 -1.00000000 129.10000610 -53.83387756 16.68743134 -894.95222473 0 0 -4 
348 7 2 1.00000000 128.19999695 -57.05915833 14.54111671 -895.54949188 0 0 -4 
349 7 1 -1.00000000 129.10000610 -59.70911407 16.89124680 -897.28598785 0 0 -4 
350 7 2 1.00000000 128.19999695 -62.77064133 19.13656616 -898.53550720 0 0 -4 
351 8 2 1.00000000 128.19999695 59.21397400 -67.80293274 569.22506332 0 0 3 
352 8 1 -1.00000000 129.10000610 56.91255951 -70.93234253 569.95891571 0 0 3 
353 8 2 1.00000000 128.19999695 53.79241180 -73.16722870 570.49780273 0 0 3 
354 8 2 1.00000000 128.19999695 54.10300827 -76.87000275 570.94789124 0 0 3 
355 8 2 1.00000000 128.19999695 54.90019608 -78.26744080 574.57255554 0 0 3 
356 8 1 -1.00000000 129.10000610 56.43418503 -81.56679535 575.64586258 0 0 3 
357 8 2 1.00000000 128.19999695 59.76485443 -83.13302612 574.05270386 0 0 3 
358 8 1 -1.00000000 129.10000610 59.02584457 -82.19161987 570.24601364 0 0 3 
359 8 1 -1.00000000 129.10000610 61.92070007 -82.31692505 567.89811707 0 0 3 
360 8 1 -1.00000000 129.10000610 65.62841797 -83.39608765 568.93077469 0 0 3 
361 8 2 1.00000000 128.19999695 69.08341980 -81.45642853 568.30728912 0 0 3 
362 8 1 -1.00000000 129.10000610 69.96614838 -78.31034088 570.93978882 0 0 3 
363 8 1 -1.00000000 129.10000610 71.36465454 -78.47621918 574.40135574 0 0 3 
364 8 1 -1.00000000 129.10000610 73.52566528 -75.42022705 575.37237167 0 0 3 
365 8 2 1.00000000 128.19999695 71.44677734 -72.35588074 576.44463348 0 0 3 
366 8 2 1.00000000 128.19999695 71.47899628 -69.60870361 573.98798370 0 0 3 
367 8 1 -1.00000000 129.10000610 69.29755402 -66.45612335 574.73776627 0 0 3 
368 8 1 -1.00000000 129.10000610 68.54814911 -65.34026337 578.19244385 0 0 3 
369 8 2 1.00000000 128.19999695 65.71812439 -62.99345016 579.00559998 0 0 3 
370 8 1 -1.00000000 129.10000610 62.93194580 -65.39850616 579.05505371 0 0 3 
371 8 1 -1.00000000 129.10000610 61.71402740 -69.23548889 579.17052460 0 0 3 