ITEM: TIMESTEP
40600000 
ITEM: NUMBER OF ATOMS 
25000 
ITEM: BOX BOUNDS pp pp pp 
-103.678017 103.678017 
-103.678017 103.678017 
-103.678017 103.678017 
ITEM: ATOMS id mol type q mass xu yu zu ix iy iz 
1 1 2 1.00000000 128.19999695 398.66876221 91.05686188 -305.49953461 2 0 -1 
2 1 1 -1.00000000 129.10000610 395.65275764 89.15857697 -303.56452179 2 0 -1 
3 1 2 1.00000000 128.19999695 394.44982529 85.73298645 -304.29187012 2 0 -1 
4 1 2 1.00000000 128.19999695 395.14994049 82.04390717 -303.36942291 2 0 -1 
5 1 2 1.00000000 128.19999695 393.27230453 79.03105164 -301.66118622 2 0 -1 
6 1 1 -1.00000000 129.10000610 392.68429947 75.40509033 -300.40461731 2 0 -1 
7 1 2 1.00000000 128.19999695 395.67190170 73.98245239 -298.77024078 2 0 -1 
8 1 1 -1.00000000 129.10000610 396.67734337 70.29875946 -300.61195374 2 0 -1 
9 1 1 -1.00000000 129.10000610 399.66519070 70.70384216 -303.12715912 2 0 -1 
10 1 1 -1.00000000 129.10000610 402.65183926 68.72811127 -303.69691467 2 0 -1 
11 1 2 1.00000000 128.19999695 403.73990154 67.12010956 -307.36066437 2 0 -1 
12 1 1 -1.00000000 129.10000610 401.11999989 64.88677216 -309.84983063 2 0 -1 
13 1 1 -1.00000000 129.10000610 398.12786865 64.06459045 -307.89190674 2 0 -1 
14 1 1 -1.00000000 129.10000610 394.37649536 64.88089752 -309.13209534 2 0 -1 
15 1 2 1.00000000 128.19999695 391.80976486 63.24243927 -311.54595184 2 0 -2 
16 1 2 1.00000000 128.19999695 391.02079773 66.95376587 -313.30120850 2 0 -2 
17 1 1 -1.00000000 129.10000610 388.83044243 65.40417480 -316.20840454 2 0 -2 
18 1 1 -1.00000000 129.10000610 385.60309410 64.05632782 -315.13856506 2 0 -2 
19 1 2 1.00000000 128.19999695 383.80421829 60.63829422 -315.01059723 2 0 -2 
20 1 1 -1.00000000 129.10000610 383.31938553 57.39056396 -313.24333954 2 0 -2 
21 1 1 -1.00000000 129.10000610 382.60512924 53.60827637 -314.78694916 2 0 -2 
22 1 1 -1.00000000 129.10000610 380.17340469 50.46068573 -314.98424530 2 0 -2 
23 1 2 1.00000000 128.19999695 379.87302399 50.42214584 -311.05892944 2 0 -2 
24 1 1 -1.00000000 129.10000610 380.76819229 52.02001953 -307.33882904 2 0 -1 
25 1 1 -1.00000000 129.10000610 382.35062027 55.25121307 -306.36155701 2 0 -1 
26 1 2 1.00000000 128.19999695 382.44610596 59.11188507 -305.82434845 2 0 -1 
27 1 2 1.00000000 128.19999695 381.97346115 60.66617584 -302.52134705 2 0 -1 
28 1 2 1.00000000 128.19999695 380.17675018 64.46897125 -302.76303864 2 0 -1 
29 1 2 1.00000000 128.19999695 377.70448303 67.60054779 -302.93501282 2 0 -1 
30 1 2 1.00000000 128.19999695 374.22662735 69.81732941 -302.79790497 2 0 -1 
31 1 1 -1.00000000 129.10000610 371.66413879 72.33451843 -301.93636322 2 0 -1 
32 1 1 -1.00000000 129.10000610 368.56377411 72.06550598 -304.29695892 2 0 -1 
33 1 1 -1.00000000 129.10000610 365.31947327 72.00102234 -302.74504852 2 0 -1 
34 1 2 1.00000000 128.19999695 361.91744232 70.99021149 -304.42431641 2 0 -1 
35 1 2 1.00000000 128.19999695 358.84072876 72.19795990 -306.15583801 2 0 -1 
36 1 2 1.00000000 128.19999695 356.99809647 75.25574493 -305.28459930 2 0 -1 
37 1 1 -1.00000000 129.10000610 355.64251709 78.69857025 -304.51183319 2 0 -1 
38 1 2 1.00000000 128.19999695 353.44696808 82.23210144 -303.99808502 2 0 -1 
39 1 1 -1.00000000 129.10000610 351.59979248 81.64302826 -307.18315125 2 0 -1 
40 1 1 -1.00000000 129.10000610 348.21932983 80.23954010 -307.33225250 2 0 -1 
41 1 1 -1.00000000 129.10000610 347.80535126 79.29981995 -310.87899780 2 0 -1 
42 1 2 1.00000000 128.19999695 345.37419891 81.02366638 -313.07692719 2 0 -2 
43 1 1 -1.00000000 129.10000610 343.82745361 81.47088623 -316.13632202 2 0 -2 
44 1 2 1.00000000 128.19999695 343.70671844 79.94332123 -319.40221405 2 0 -2 
45 1 2 1.00000000 128.19999695 343.44243622 77.86851501 -322.79869080 2 0 -2 
46 1 2 1.00000000 128.19999695 345.68073273 74.87586975 -322.63547516 2 0 -2 
47 1 1 -1.00000000 129.10000610 348.53786469 72.90717316 -321.89702606 2 0 -2 
48 1 2 1.00000000 128.19999695 351.00800705 73.82128143 -319.19580841 2 0 -2 
49 1 1 -1.00000000 129.10000610 352.38044357 77.15429688 -318.56730652 2 0 -2 
50 1 2 1.00000000 128.19999695 356.15032196 76.84574890 -319.48011780 2 0 -2 
51 2 2 1.00000000 128.19999695 565.88060379 433.57758141 -229.92176819 3 2 -1 
52 2 1 -1.00000000 129.10000610 563.82219696 435.21401596 -226.93608284 3 2 -1 
53 2 2 1.00000000 128.19999695 563.00350189 436.63069344 -223.77393913 3 2 -1 
54 2 2 1.00000000 128.19999695 559.66434479 438.29559898 -224.99271202 3 2 -1 
55 2 2 1.00000000 128.19999695 559.12690353 440.69548225 -227.69557571 3 2 -1 
56 2 1 -1.00000000 129.10000610 559.28897476 442.12096977 -231.11157417 3 2 -1 
57 2 2 1.00000000 128.19999695 557.62916565 442.24831009 -234.38065910 3 2 -1 
58 2 1 -1.00000000 129.10000610 555.85951996 439.26429367 -235.49477577 3 2 -1 
59 2 1 -1.00000000 129.10000610 553.50633240 436.79807091 -234.58029747 3 2 -1 
60 2 1 -1.00000000 129.10000610 553.98477173 433.39247894 -236.27793503 3 2 -1 
61 2 2 1.00000000 128.19999695 551.64994049 432.12442017 -238.90940666 3 2 -1 
62 2 1 -1.00000000 129.10000610 552.83386230 434.01700592 -242.02131271 3 2 -1 
63 2 1 -1.00000000 129.10000610 552.61524200 437.69523048 -242.09208679 3 2 -1 
64 2 1 -1.00000000 129.10000610 549.33801270 439.13223839 -241.33161926 3 2 -1 
65 2 2 1.00000000 128.19999695 547.18269348 439.09733582 -237.96727753 3 2 -1 
66 2 2 1.00000000 128.19999695 543.93555450 440.94610977 -237.19022369 3 2 -1 
67 2 1 -1.00000000 129.10000610 543.33730316 444.53269768 -236.25104713 3 2 -1 
68 2 1 -1.00000000 129.10000610 543.33443451 446.65846443 -239.18514633 3 2 -1 
69 2 2 1.00000000 128.19999695 541.72030640 445.55955315 -242.57200241 3 2 -1 
70 2 1 -1.00000000 129.10000610 542.54368591 444.73292351 -246.08818436 3 2 -1 
71 2 1 -1.00000000 129.10000610 540.55297089 446.74635696 -248.75481796 3 2 -1 
72 2 1 -1.00000000 129.10000610 540.96282196 450.51787186 -248.40958023 3 2 -1 
73 2 2 1.00000000 128.19999695 539.69369507 451.22510910 -244.84101105 3 2 -1 
74 2 1 -1.00000000 129.10000610 536.60098267 451.83559418 -242.53845215 3 2 -1 
75 2 1 -1.00000000 129.10000610 533.03871918 451.76029968 -243.13508987 3 2 -1 
76 2 2 1.00000000 128.19999695 529.40696716 453.08634567 -243.12889481 3 2 -1 
77 2 2 1.00000000 128.19999695 526.81889343 455.77356339 -243.07283020 3 2 -1 
78 2 2 1.00000000 128.19999695 523.62141418 456.39209747 -241.72386932 3 2 -1 
79 2 2 1.00000000 128.19999695 520.23289490 456.39355087 -239.80611801 3 2 -1 
80 2 2 1.00000000 128.19999695 520.57287598 454.56497955 -236.38566780 3 2 -1 
81 2 1 -1.00000000 129.10000610 517.61963654 454.35214996 -234.34953690 2 2 -1 
82 2 1 -1.00000000 129.10000610 513.97984314 455.39395905 -235.42115784 2 2 -1 
83 2 1 -1.00000000 129.10000610 512.20050812 451.92547226 -235.49240875 2 2 -1 
84 2 2 1.00000000 128.19999695 513.62103271 448.83794785 -234.24688530 2 2 -1 
85 2 2 1.00000000 128.19999695 514.84439850 445.69321442 -233.83525658 2 2 -1 
86 2 2 1.00000000 128.19999695 518.66914368 444.62694168 -232.88310242 3 2 -1 
87 2 1 -1.00000000 129.10000610 521.21573639 447.44355011 -232.38521576 3 2 -1 
88 2 2 1.00000000 128.19999695 524.37358856 447.76174164 -229.98410225 3 2 -1 
89 2 1 -1.00000000 129.10000610 522.82025146 449.89664841 -227.14650726 3 2 -1 
90 2 1 -1.00000000 129.10000610 523.59899902 448.56146622 -223.43266487 3 2 -1 
91 2 1 -1.00000000 129.10000610 526.52510834 447.52789307 -221.44261646 3 2 -1 
92 2 2 1.00000000 128.19999695 526.72920227 443.72896957 -221.75651169 3 2 -1 
93 2 1 -1.00000000 129.10000610 528.75585175 441.28999138 -219.29809666 3 2 -1 
94 2 2 1.00000000 128.19999695 530.31874084 438.32765579 -220.46105766 3 2 -1 
95 2 2 1.00000000 128.19999695 533.03031921 435.76170731 -219.01220703 3 2 -1 
96 2 2 1.00000000 128.19999695 535.55741119 436.12961769 -221.87492657 3 2 -1 
97 2 1 -1.00000000 129.10000610 539.25145721 434.49005890 -222.18066883 3 2 -1 
98 2 2 1.00000000 128.19999695 541.83498383 433.38359833 -224.70440865 3 2 -1 
99 2 1 -1.00000000 129.10000610 541.92002869 432.08112717 -228.17139435 3 2 -1 
100 2 2 1.00000000 128.19999695 541.76575470 433.52738380 -231.69073296 3 2 -1 
101 3 2 1.00000000 128.19999695 277.78612518 -117.24198914 -31.69429016 1 -1 0 
102 3 1 -1.00000000 129.10000610 280.90458679 -115.09282684 -32.24879837 1 -1 0 
103 3 2 1.00000000 128.19999695 282.02558136 -111.39595795 -31.88538361 1 -1 0 
104 3 2 1.00000000 128.19999695 281.21891022 -107.87346649 -30.38741302 1 -1 0 
105 3 2 1.00000000 128.19999695 280.43131256 -106.52089691 -26.99722481 1 -1 0 
106 3 1 -1.00000000 129.10000610 282.35546875 -108.94643402 -24.31570244 1 -1 0 
107 3 2 1.00000000 128.19999695 284.58441162 -109.63807678 -21.36757278 1 -1 0 
108 3 1 -1.00000000 129.10000610 287.30881500 -112.45758057 -21.63726997 1 -1 0 
109 3 1 -1.00000000 129.10000610 288.44357300 -113.17838287 -25.13469505 1 -1 0 
110 3 1 -1.00000000 129.10000610 289.16354370 -110.54758453 -27.62613297 1 -1 0 
111 3 2 1.00000000 128.19999695 292.56366730 -110.51563263 -29.24884224 1 -1 0 
112 3 1 -1.00000000 129.10000610 294.81600952 -107.38819122 -29.65891647 1 -1 0 
113 3 1 -1.00000000 129.10000610 297.07839203 -105.16021729 -28.07663727 1 -1 0 
114 3 1 -1.00000000 129.10000610 299.73640442 -102.77512360 -29.39404297 1 0 0 
115 3 2 1.00000000 128.19999695 301.79779816 -100.04686737 -27.56605530 1 0 0 
116 3 2 1.00000000 128.19999695 301.69055939 -96.54187012 -28.65330315 1 0 0 
117 3 1 -1.00000000 129.10000610 302.29833984 -94.38685608 -25.91804504 1 0 0 
118 3 1 -1.00000000 129.10000610 302.61159515 -90.16448212 -26.04459000 1 0 0 
119 3 2 1.00000000 128.19999695 302.72977448 -86.42707062 -27.72920036 1 0 0 
120 3 1 -1.00000000 129.10000610 300.16442871 -83.62045288 -28.54926491 1 0 0 
121 3 1 -1.00000000 129.10000610 296.63325500 -82.10077667 -27.16270256 1 0 0 
122 3 1 -1.00000000 129.10000610 298.15975952 -78.82740784 -26.98980331 1 0 0 
123 3 2 1.00000000 128.19999695 299.00883484 -76.35254669 -29.56480598 1 0 0 
124 3 1 -1.00000000 129.10000610 299.67565918 -72.92623901 -31.52228928 1 0 0 
125 3 1 -1.00000000 129.10000610 301.17948151 -70.30834198 -29.35838318 1 0 0 
126 3 2 1.00000000 128.19999695 303.05282593 -67.19309235 -29.69296265 1 0 0 
127 3 2 1.00000000 128.19999695 306.73706055 -67.23738098 -30.35512161 1 0 0 
128 3 2 1.00000000 128.19999695 310.48078918 -66.60334015 -29.65876389 1 0 0 
129 3 2 1.00000000 128.19999695 314.23413849 -66.87123871 -30.27239227 2 0 0 
130 3 2 1.00000000 128.19999695 315.85223389 -67.47040558 -33.60627365 2 0 0 
131 3 1 -1.00000000 129.10000610 314.32835388 -69.56085205 -36.13136673 2 0 0 
132 3 1 -1.00000000 129.10000610 310.54699707 -69.04353333 -36.50426865 1 0 0 
133 3 1 -1.00000000 129.10000610 307.09007263 -67.91792297 -37.15301895 1 0 0 
134 3 2 1.00000000 128.19999695 303.12889862 -68.20421600 -36.83652496 1 0 0 
135 3 2 1.00000000 128.19999695 299.39949036 -67.78713226 -37.16195679 1 0 0 
136 3 2 1.00000000 128.19999695 296.26186371 -69.20877838 -36.47502899 1 0 0 
137 3 1 -1.00000000 129.10000610 293.89812469 -66.60755920 -37.89192963 1 0 0 
138 3 2 1.00000000 128.19999695 293.24007416 -67.06459808 -41.75919724 1 0 0 
139 3 1 -1.00000000 129.10000610 292.18096161 -64.81340027 -44.48035431 1 0 0 
140 3 1 -1.00000000 129.10000610 293.68854523 -61.32748795 -44.71148300 1 0 0 
141 3 1 -1.00000000 129.10000610 297.28520966 -60.40171051 -43.62372971 1 0 0 
142 3 2 1.00000000 128.19999695 300.47024536 -62.13154602 -43.39710999 1 0 0 
143 3 1 -1.00000000 129.10000610 302.67133331 -62.65026474 -40.12487411 1 0 0 
144 3 2 1.00000000 128.19999695 299.73859406 -61.25437164 -37.32630539 1 0 0 
145 3 2 1.00000000 128.19999695 299.87386322 -58.29531860 -35.02936554 1 0 0 
146 3 2 1.00000000 128.19999695 300.85918427 -58.35224915 -31.52939606 1 0 0 
147 3 1 -1.00000000 129.10000610 298.86879730 -58.28519821 -28.26247787 1 0 0 
148 3 2 1.00000000 128.19999695 295.60944366 -57.85939026 -26.18786430 1 0 0 
149 3 1 -1.00000000 129.10000610 292.54299927 -57.27764130 -28.65863991 1 0 0 
150 3 2 1.00000000 128.19999695 289.03873444 -56.81179047 -30.04270744 1 0 0 
151 4 2 1.00000000 128.19999695 -357.82801437 317.10478210 -10.66128540 -2 2 0 
152 4 1 -1.00000000 129.10000610 -354.42956924 316.24698639 -12.09367371 -2 2 0 
153 4 2 1.00000000 128.19999695 -353.60935211 312.78034973 -13.14418983 -2 2 0 
154 4 2 1.00000000 128.19999695 -352.57585144 309.51741791 -11.06682777 -2 1 0 
155 4 2 1.00000000 128.19999695 -349.30796051 308.67065430 -12.42729378 -2 1 0 
156 4 1 -1.00000000 129.10000610 -346.02625275 308.74143219 -10.39096260 -2 1 0 
157 4 2 1.00000000 128.19999695 -342.59223175 310.57421875 -9.59345341 -2 1 0 
158 4 1 -1.00000000 129.10000610 -340.92813873 308.01914978 -11.92496300 -2 1 0 
159 4 1 -1.00000000 129.10000610 -337.91086578 305.52278900 -13.14085960 -2 1 0 
160 4 1 -1.00000000 129.10000610 -334.35621643 305.13156128 -13.26221466 -2 1 0 
161 4 2 1.00000000 128.19999695 -332.27839661 306.58892822 -16.69633293 -2 1 0 
162 4 1 -1.00000000 129.10000610 -329.24080658 304.69786072 -15.66930962 -2 1 0 
163 4 1 -1.00000000 129.10000610 -326.22155762 306.85014343 -14.82804203 -2 1 0 
164 4 1 -1.00000000 129.10000610 -324.05340576 306.76719666 -11.91969299 -2 1 0 
165 4 2 1.00000000 128.19999695 -324.99113464 304.73018646 -8.79712677 -2 1 0 
166 4 2 1.00000000 128.19999695 -323.64292908 304.10105896 -4.85036421 -2 1 0 
167 4 1 -1.00000000 129.10000610 -319.75504303 303.01373291 -4.10221863 -2 1 0 
168 4 1 -1.00000000 129.10000610 -319.20355988 299.33952332 -2.95314026 -2 1 0 
169 4 2 1.00000000 128.19999695 -317.73571014 297.06738281 -5.58090830 -2 1 0 
170 4 1 -1.00000000 129.10000610 -318.23567200 293.68837738 -4.07177639 -2 1 0 
171 4 1 -1.00000000 129.10000610 -318.36912537 290.65749359 -1.99795687 -2 1 0 
172 4 1 -1.00000000 129.10000610 -319.87329865 291.78391266 1.34157515 -2 1 0 
173 4 2 1.00000000 128.19999695 -318.65443420 295.10515594 3.16102743 -2 1 0 
174 4 1 -1.00000000 129.10000610 -317.69664764 298.60295868 3.35055685 -2 1 0 
175 4 1 -1.00000000 129.10000610 -314.63922882 299.36917877 5.51962614 -2 1 0 
176 4 2 1.00000000 128.19999695 -311.75557709 301.77675629 5.70058155 -2 1 0 
177 4 2 1.00000000 128.19999695 -309.93521118 304.22819519 3.22063971 -1 1 0 
178 4 2 1.00000000 128.19999695 -306.38552094 306.42445374 3.53382397 -1 1 0 
179 4 2 1.00000000 128.19999695 -302.88305664 305.66439819 3.14997745 -1 1 0 
180 4 2 1.00000000 128.19999695 -301.49235535 303.70869446 5.93438911 -1 1 0 
181 4 1 -1.00000000 129.10000610 -302.61029053 302.86235809 9.65557671 -1 1 0 
182 4 1 -1.00000000 129.10000610 -303.58620453 305.01886749 12.56190872 -1 1 0 
183 4 1 -1.00000000 129.10000610 -306.81766510 306.44431305 14.10619259 -1 1 0 
184 4 2 1.00000000 128.19999695 -306.94631195 309.03339386 16.31896591 -1 1 0 
185 4 2 1.00000000 128.19999695 -309.43209839 309.92247772 19.15962219 -1 1 0 
186 4 2 1.00000000 128.19999695 -308.98735809 313.39152527 20.49812698 -1 2 0 
187 4 1 -1.00000000 129.10000610 -309.81336212 316.14733887 22.61009026 -1 2 0 
188 4 2 1.00000000 128.19999695 -308.17421722 316.05381012 26.15003967 -1 2 0 
189 4 1 -1.00000000 129.10000610 -308.91693878 312.96714020 27.75770760 -1 2 0 
190 4 1 -1.00000000 129.10000610 -308.76027679 309.25986481 28.32398224 -1 1 0 
191 4 1 -1.00000000 129.10000610 -305.63995361 307.02851105 29.19217873 -1 1 0 
192 4 2 1.00000000 128.19999695 -303.18538666 309.74730682 30.30968857 -1 1 0 
193 4 1 -1.00000000 129.10000610 -302.10845184 308.54600525 33.55809784 -1 1 0 
194 4 2 1.00000000 128.19999695 -303.77448273 305.69040680 35.78923035 -1 1 0 
195 4 2 1.00000000 128.19999695 -306.67634583 304.42896271 37.91169739 -1 1 0 
196 4 2 1.00000000 128.19999695 -309.13795471 303.03316498 40.06984711 -1 1 0 
197 4 1 -1.00000000 129.10000610 -310.96785736 300.81540680 42.57779312 -1 1 0 
198 4 2 1.00000000 128.19999695 -312.89601898 297.78939056 43.22500229 -2 1 0 
199 4 1 -1.00000000 129.10000610 -313.16509247 294.55506134 41.78493500 -2 1 0 
200 4 2 1.00000000 128.19999695 -314.95713043 292.97429657 38.74215698 -2 1 0 
201 5 2 1.00000000 128.19999695 -322.03847504 -186.31964874 -173.10727310 -2 -1 -1 
202 5 1 -1.00000000 129.10000610 -322.43585968 -185.17003441 -176.70583344 -2 -1 -1 
203 5 2 1.00000000 128.19999695 -324.51071930 -183.11059570 -179.10295105 -2 -1 -1 
204 5 2 1.00000000 128.19999695 -327.29576111 -184.39055061 -181.38730431 -2 -1 -1 
205 5 2 1.00000000 128.19999695 -325.55759430 -186.10518074 -184.33178711 -2 -1 -1 
206 5 1 -1.00000000 129.10000610 -326.98874664 -184.50108147 -187.80073547 -2 -1 -1 
207 5 2 1.00000000 128.19999695 -328.88134766 -181.36902237 -187.77522850 -2 -1 -1 
208 5 1 -1.00000000 129.10000610 -327.26679230 -178.79123497 -185.02154160 -2 -1 -1 
209 5 1 -1.00000000 129.10000610 -328.42275238 -177.30410957 -181.80321693 -2 -1 -1 
210 5 1 -1.00000000 129.10000610 -330.72856140 -176.79909515 -178.78381729 -2 -1 -1 
211 5 2 1.00000000 128.19999695 -333.98432159 -175.23444366 -179.86671829 -2 -1 -1 
212 5 1 -1.00000000 129.10000610 -335.50279999 -178.05320358 -178.01041794 -2 -1 -1 
213 5 1 -1.00000000 129.10000610 -334.92386627 -178.78326988 -174.49102020 -2 -1 -1 
214 5 1 -1.00000000 129.10000610 -334.06298828 -182.31720543 -175.26923752 -2 -1 -1 
215 5 2 1.00000000 128.19999695 -333.84703064 -185.80449867 -177.35656929 -2 -1 -1 
216 5 2 1.00000000 128.19999695 -336.74744415 -188.43743324 -177.90108109 -2 -1 -1 
217 5 1 -1.00000000 129.10000610 -339.17395782 -187.00588799 -180.33339500 -2 -1 -1 
218 5 1 -1.00000000 129.10000610 -339.80582428 -187.50443077 -183.77515793 -2 -1 -1 
219 5 2 1.00000000 128.19999695 -340.57661438 -185.77910233 -186.95646477 -2 -1 -1 
220 5 1 -1.00000000 129.10000610 -342.84429169 -182.98858261 -188.40833473 -2 -1 -1 
221 5 1 -1.00000000 129.10000610 -345.61365509 -183.64935684 -190.60678291 -2 -1 -1 
222 5 1 -1.00000000 129.10000610 -344.17202759 -185.74242020 -193.96545029 -2 -1 -1 
223 5 2 1.00000000 128.19999695 -343.19499207 -189.39168739 -194.19400978 -2 -1 -1 
224 5 1 -1.00000000 129.10000610 -345.46762848 -191.65431499 -192.31330872 -2 -1 -1 
225 5 1 -1.00000000 129.10000610 -347.80472565 -192.13738728 -189.21093559 -2 -1 -1 
226 5 2 1.00000000 128.19999695 -350.42120361 -190.27053833 -186.95620155 -2 -1 -1 
227 5 2 1.00000000 128.19999695 -349.13608551 -186.77522278 -186.05146408 -2 -1 -1 
228 5 2 1.00000000 128.19999695 -347.00879669 -184.65317345 -183.61436462 -2 -1 -1 
229 5 2 1.00000000 128.19999695 -346.01766205 -185.88739777 -180.02496529 -2 -1 -1 
230 5 2 1.00000000 128.19999695 -346.67977142 -187.73048973 -176.94698906 -2 -1 -1 
231 5 1 -1.00000000 129.10000610 -347.14331818 -191.48367119 -176.89686584 -2 -1 -1 
232 5 1 -1.00000000 129.10000610 -350.25888062 -192.01828861 -174.63042068 -2 -1 -1 
233 5 1 -1.00000000 129.10000610 -352.65876389 -192.89128304 -177.35193443 -2 -1 -1 
234 5 2 1.00000000 128.19999695 -353.57591629 -196.43071651 -177.60999107 -2 -1 -1 
235 5 2 1.00000000 128.19999695 -351.85717010 -199.56969547 -175.58192444 -2 -1 -1 
236 5 2 1.00000000 128.19999695 -349.05577087 -200.50155115 -173.83995819 -2 -1 -1 
237 5 1 -1.00000000 129.10000610 -345.90937805 -198.32042599 -174.58662415 -2 -1 -1 
238 5 2 1.00000000 128.19999695 -342.91433716 -196.45355320 -175.86410904 -2 -1 -1 
239 5 1 -1.00000000 129.10000610 -341.37032318 -196.40261936 -179.06365967 -2 -1 -1 
240 5 1 -1.00000000 129.10000610 -339.06360626 -194.15318012 -181.04528618 -2 -1 -1 
241 5 1 -1.00000000 129.10000610 -335.37421417 -195.05308437 -181.33613586 -2 -1 -1 
242 5 2 1.00000000 128.19999695 -333.58975220 -198.00911522 -182.41386795 -2 -1 -1 
243 5 1 -1.00000000 129.10000610 -331.04261780 -199.88762951 -180.05482864 -2 -1 -1 
244 5 2 1.00000000 128.19999695 -328.88311005 -202.56818056 -180.92159462 -2 -1 -1 
245 5 2 1.00000000 128.19999695 -326.00485229 -203.33580780 -183.01232910 -2 -1 -1 
246 5 2 1.00000000 128.19999695 -322.79536438 -205.38587558 -183.08941078 -2 -1 -1 
247 5 1 -1.00000000 129.10000610 -322.26045227 -209.25632513 -184.04395676 -2 -1 -1 
248 5 2 1.00000000 128.19999695 -318.23980713 -209.48298144 -183.06058502 -2 -1 -1 
249 5 1 -1.00000000 129.10000610 -315.02497864 -208.53881013 -184.48464966 -2 -1 -1 
250 5 2 1.00000000 128.19999695 -311.14751434 -207.77552363 -185.02380753 -2 -1 -1 
251 6 2 1.00000000 128.19999695 389.66037178 -446.89332962 -78.16346741 2 -2 0 
252 6 1 -1.00000000 129.10000610 388.66475868 -450.38843536 -77.87729645 2 -2 0 
253 6 2 1.00000000 128.19999695 387.87551308 -451.17469025 -74.17980194 2 -2 0 
254 6 2 1.00000000 128.19999695 387.48108482 -447.67227173 -72.37387085 2 -2 0 
255 6 2 1.00000000 128.19999695 385.16439629 -445.13137436 -71.55918884 2 -2 0 
256 6 1 -1.00000000 129.10000610 385.31223869 -441.34843826 -71.15476227 2 -2 0 
257 6 2 1.00000000 128.19999695 386.81705093 -439.26016617 -68.69754028 2 -2 0 
258 6 1 -1.00000000 129.10000610 390.67262840 -438.79826546 -69.44839478 2 -2 0 
259 6 1 -1.00000000 129.10000610 393.76228333 -436.48073769 -68.83590698 2 -2 0 
260 6 1 -1.00000000 129.10000610 396.39546967 -435.76281548 -66.07131958 2 -2 0 
261 6 2 1.00000000 128.19999695 397.70228386 -432.27951813 -64.87509155 2 -2 0 
262 6 1 -1.00000000 129.10000610 398.90881252 -428.66823196 -64.10220337 2 -2 0 
263 6 1 -1.00000000 129.10000610 402.24895477 -426.51873589 -65.01770782 2 -2 0 
264 6 1 -1.00000000 129.10000610 405.69160652 -428.37018490 -64.70890808 2 -2 0 
265 6 2 1.00000000 128.19999695 405.46057034 -431.70935440 -63.12014008 2 -2 0 
266 6 2 1.00000000 128.19999695 404.50324726 -435.36319160 -64.25979614 2 -2 0 
267 6 1 -1.00000000 129.10000610 403.53255939 -437.44632149 -61.40256119 2 -2 0 
268 6 1 -1.00000000 129.10000610 403.42613411 -437.11348534 -57.66757202 2 -2 0 
269 6 2 1.00000000 128.19999695 402.14200401 -434.43568230 -55.56373596 2 -2 0 
270 6 1 -1.00000000 129.10000610 401.34250164 -430.90221977 -54.61891556 2 -2 0 
271 6 1 -1.00000000 129.10000610 401.86840725 -429.08911610 -51.15808868 2 -2 0 
272 6 1 -1.00000000 129.10000610 400.42740536 -425.92567348 -49.82925797 2 -2 0 
273 6 2 1.00000000 128.19999695 399.45977020 -425.28904629 -46.23216248 2 -2 0 
274 6 1 -1.00000000 129.10000610 401.37976742 -424.70116711 -43.26696777 2 -2 0 
275 6 1 -1.00000000 129.10000610 399.61657047 -425.87747860 -40.00430298 2 -2 0 
276 6 2 1.00000000 128.19999695 398.17116165 -428.66660404 -37.38767624 2 -2 0 
277 6 2 1.00000000 128.19999695 395.39135933 -428.03653431 -34.81651688 2 -2 0 
278 6 2 1.00000000 128.19999695 393.76860237 -425.42960453 -32.46029663 2 -2 0 
279 6 2 1.00000000 128.19999695 390.85143089 -425.19992828 -29.78383636 2 -2 0 
280 6 2 1.00000000 128.19999695 388.23951149 -422.24580479 -30.34560204 2 -2 0 
281 6 1 -1.00000000 129.10000610 384.65462303 -423.48098946 -30.48006630 2 -2 0 
282 6 1 -1.00000000 129.10000610 381.82947540 -421.00096130 -31.62946510 2 -2 0 
283 6 1 -1.00000000 129.10000610 378.02706528 -421.98050594 -31.25385475 2 -2 0 
284 6 2 1.00000000 128.19999695 375.11684036 -419.70387506 -30.79347038 2 -2 0 
285 6 2 1.00000000 128.19999695 374.94057846 -418.87838125 -27.03476524 2 -2 0 
286 6 2 1.00000000 128.19999695 375.29720688 -417.93303084 -23.51264191 2 -2 0 
287 6 1 -1.00000000 129.10000610 378.28717041 -418.20554733 -21.54379272 2 -2 0 
288 6 2 1.00000000 128.19999695 381.22888184 -418.20158863 -19.22326660 2 -2 0 
289 6 1 -1.00000000 129.10000610 382.66080856 -416.12383008 -16.38523674 2 -2 0 
290 6 1 -1.00000000 129.10000610 380.45874023 -413.55024135 -15.11407375 2 -2 0 
291 6 1 -1.00000000 129.10000610 378.09358978 -414.17243862 -12.08312511 2 -2 0 
292 6 2 1.00000000 128.19999695 375.59477615 -411.63064051 -10.48272133 2 -2 0 
293 6 1 -1.00000000 129.10000610 374.86758041 -408.62237549 -8.43991184 2 -2 0 
294 6 2 1.00000000 128.19999695 372.74385834 -408.05105829 -5.50354481 2 -2 0 
295 6 2 1.00000000 128.19999695 374.70705032 -409.91804600 -2.30277348 2 -2 0 
296 6 2 1.00000000 128.19999695 375.09034348 -407.91678047 0.97818053 2 -2 0 
297 6 1 -1.00000000 129.10000610 377.89458466 -406.44504452 3.34273553 2 -2 0 
298 6 2 1.00000000 128.19999695 378.53212357 -403.15943527 5.14245129 2 -2 0 
299 6 1 -1.00000000 129.10000610 380.78033066 -399.97210217 4.71176291 2 -2 0 
300 6 2 1.00000000 128.19999695 384.33802795 -399.23424625 5.78401995 2 -2 0 
301 7 2 1.00000000 128.19999695 -141.26166534 -39.16017532 -924.33090973 -1 0 -4 
302 7 1 -1.00000000 129.10000610 -139.78100586 -35.96477127 -923.22520447 -1 0 -4 
303 7 2 1.00000000 128.19999695 -136.15898132 -36.28047180 -923.01004791 -1 0 -4 
304 7 2 1.00000000 128.19999695 -132.87658691 -38.28115845 -923.14127350 -1 0 -4 
305 7 2 1.00000000 128.19999695 -130.61045074 -37.78135300 -926.51390839 -1 0 -4 
306 7 1 -1.00000000 129.10000610 -128.51033783 -35.08999634 -926.81542206 -1 0 -4 
307 7 2 1.00000000 128.19999695 -129.36882782 -31.37819099 -926.56829834 -1 0 -4 
308 7 1 -1.00000000 129.10000610 -132.96267700 -31.68277168 -925.99308777 -1 0 -4 
309 7 1 -1.00000000 129.10000610 -134.70817566 -33.74112320 -928.90628815 -1 0 -4 
310 7 1 -1.00000000 129.10000610 -136.11668396 -33.37804413 -932.37589264 -1 0 -4 
311 7 2 1.00000000 128.19999695 -139.34319305 -35.42024994 -932.76835632 -1 0 -4 
312 7 1 -1.00000000 129.10000610 -142.30975342 -33.28125000 -931.61939240 -1 0 -4 
313 7 1 -1.00000000 129.10000610 -144.63896942 -33.39933395 -928.65295410 -1 0 -4 
314 7 1 -1.00000000 129.10000610 -146.30174637 -36.69164276 -929.57122803 -1 0 -4 
315 7 2 1.00000000 128.19999695 -147.70105743 -38.12411499 -932.62308502 -1 0 -4 
316 7 2 1.00000000 128.19999695 -146.10747147 -40.96303940 -934.72519684 -1 0 -5 
317 7 1 -1.00000000 129.10000610 -147.26361847 -40.58049393 -938.57720184 -1 0 -5 
318 7 1 -1.00000000 129.10000610 -148.83277893 -39.85261536 -941.76445007 -1 0 -5 
319 7 2 1.00000000 128.19999695 -151.81009293 -37.38011932 -943.04099274 -1 0 -5 
320 7 1 -1.00000000 129.10000610 -155.09067154 -37.75848007 -940.33554077 -1 0 -5 
321 7 1 -1.00000000 129.10000610 -158.02731705 -35.40117264 -939.41371155 -1 0 -5 
322 7 1 -1.00000000 129.10000610 -159.03409195 -34.32214355 -942.96824646 -1 0 -5 
323 7 2 1.00000000 128.19999695 -161.52208710 -32.27749634 -945.79322815 -1 0 -5 
324 7 1 -1.00000000 129.10000610 -163.10721588 -34.33386612 -948.38639069 -1 0 -5 
325 7 1 -1.00000000 129.10000610 -166.41069412 -36.41403580 -947.99238586 -1 0 -5 
326 7 2 1.00000000 128.19999695 -167.87244415 -34.77602768 -944.80713654 -1 0 -5 
327 7 2 1.00000000 128.19999695 -169.37379456 -35.56904221 -941.83077240 -1 0 -5 
328 7 2 1.00000000 128.19999695 -172.73355865 -36.73793030 -941.09178162 -1 0 -5 
329 7 2 1.00000000 128.19999695 -174.72446823 -37.49471283 -943.92810822 -1 0 -5 
330 7 2 1.00000000 128.19999695 -178.38756561 -37.85395432 -944.82364655 -1 0 -5 
331 7 1 -1.00000000 129.10000610 -180.23490334 -36.11937714 -947.69656372 -1 0 -5 
332 7 1 -1.00000000 129.10000610 -180.12300682 -32.71580124 -945.91914368 -1 0 -5 
333 7 1 -1.00000000 129.10000610 -182.65613747 -32.92024994 -943.08188629 -1 0 -5 
334 7 2 1.00000000 128.19999695 -184.80108261 -33.69342041 -939.91458893 -1 0 -5 
335 7 2 1.00000000 128.19999695 -184.81130600 -35.17232513 -936.54701233 -1 0 -5 
336 7 2 1.00000000 128.19999695 -186.83733559 -35.93457413 -933.53580475 -1 0 -5 
337 7 1 -1.00000000 129.10000610 -190.29263306 -37.33572006 -932.98586273 -1 0 -4 
338 7 2 1.00000000 128.19999695 -191.42596340 -37.91096497 -929.11681366 -1 0 -4 
339 7 1 -1.00000000 129.10000610 -188.64594078 -40.61169434 -928.57981110 -1 0 -4 
340 7 1 -1.00000000 129.10000610 -188.25281715 -44.28116989 -930.21266937 -1 0 -4 
341 7 1 -1.00000000 129.10000610 -186.36144066 -46.68983841 -932.39471436 -1 0 -4 
342 7 2 1.00000000 128.19999695 -187.11238480 -46.19624329 -936.01370239 -1 0 -5 
343 7 1 -1.00000000 129.10000610 -188.08306694 -49.38806915 -937.85527039 -1 0 -5 
344 7 2 1.00000000 128.19999695 -188.49528122 -52.92387390 -936.67608643 -1 0 -5 
345 7 2 1.00000000 128.19999695 -187.93300056 -55.41316986 -939.60230255 -1 0 -5 
346 7 2 1.00000000 128.19999695 -190.85420990 -55.88132095 -941.94655609 -1 0 -5 
347 7 1 -1.00000000 129.10000610 -194.20650578 -56.96663284 -940.19466400 -1 0 -5 
348 7 2 1.00000000 128.19999695 -196.77292919 -60.04196548 -940.26816559 -1 0 -5 
349 7 1 -1.00000000 129.10000610 -197.97756004 -60.89670944 -936.73123169 -1 0 -5 
350 7 2 1.00000000 128.19999695 -201.08278084 -60.60969925 -934.66260529 -1 0 -5 
351 8 2 1.00000000 128.19999695 54.75316238 -97.39063263 637.53278828 0 0 3 
352 8 1 -1.00000000 129.10000610 58.46524811 -97.50762939 637.37689686 0 0 3 
353 8 2 1.00000000 128.19999695 59.51921082 -99.49470520 640.27757454 0 0 3 
354 8 2 1.00000000 128.19999695 58.01701736 -102.85578918 641.66418839 0 0 3 
355 8 2 1.00000000 128.19999695 55.99718475 -105.58792877 639.79969025 0 -1 3 
356 8 1 -1.00000000 129.10000610 53.61056900 -106.38712311 636.87952900 0 -1 3 
357 8 2 1.00000000 128.19999695 52.42515182 -104.31568909 634.14344883 0 -1 3 
358 8 1 -1.00000000 129.10000610 51.61068726 -102.72817993 630.55985546 0 0 3 
359 8 1 -1.00000000 129.10000610 49.13103485 -99.93531799 631.84442043 0 0 3 
360 8 1 -1.00000000 129.10000610 48.07467270 -98.20443726 635.12237740 0 0 3 
361 8 2 1.00000000 128.19999695 45.07493973 -99.81242371 636.38296795 0 0 3 
362 8 1 -1.00000000 129.10000610 43.70559692 -102.55413055 638.96285057 0 0 3 
363 8 1 -1.00000000 129.10000610 41.96493149 -105.84640503 639.38381386 0 -1 3 
364 8 1 -1.00000000 129.10000610 41.11683273 -108.61894226 637.06959343 0 -1 3 
365 8 2 1.00000000 128.19999695 41.02667236 -108.87525177 632.84449387 0 -1 3 
366 8 2 1.00000000 128.19999695 40.37936020 -110.38747406 629.65757084 0 -1 3 
367 8 1 -1.00000000 129.10000610 38.83859253 -111.70412445 626.58323002 0 -1 3 
368 8 1 -1.00000000 129.10000610 35.33084488 -113.73173523 627.37530231 0 -1 3 
369 8 2 1.00000000 128.19999695 32.86152267 -111.93811798 629.96002340 0 -1 3 
370 8 1 -1.00000000 129.10000610 30.86593819 -108.85267639 630.61233711 0 -1 3 