ITEM: TIMESTEP
44700000 
ITEM: NUMBER OF ATOMS 
25000 
ITEM: BOX BOUNDS pp pp pp 
-103.678017 103.678017 
-103.678017 103.678017 
-103.678017 103.678017 
ITEM: ATOMS id mol type q mass xu yu zu ix iy iz 
1 1 2 1.00000000 128.19999695 561.17223358 -169.81921387 -228.21552467 3 -1 -1 
2 1 1 -1.00000000 129.10000610 563.60594559 -169.74431229 -225.59087944 3 -1 -1 
3 1 2 1.00000000 128.19999695 565.08303070 -169.39423752 -222.15787125 3 -1 -1 
4 1 2 1.00000000 128.19999695 568.85684967 -168.65978241 -220.96334648 3 -1 -1 
5 1 2 1.00000000 128.19999695 571.13820648 -171.07807541 -222.30677509 3 -1 -1 
6 1 1 -1.00000000 129.10000610 574.37823486 -170.41714096 -224.82806778 3 -1 -1 
7 1 2 1.00000000 128.19999695 572.85024643 -168.92370224 -228.15043449 3 -1 -1 
8 1 1 -1.00000000 129.10000610 571.83784866 -166.08780289 -230.43615723 3 -1 -1 
9 1 1 -1.00000000 129.10000610 568.24960709 -165.08319092 -229.19567680 3 -1 -1 
10 1 1 -1.00000000 129.10000610 566.99189758 -165.85152817 -232.69952965 3 -1 -1 
11 1 2 1.00000000 128.19999695 563.12960052 -165.67560577 -232.72064972 3 -1 -1 
12 1 1 -1.00000000 129.10000610 561.57181168 -167.67056274 -235.08766556 3 -1 -1 
13 1 1 -1.00000000 129.10000610 561.50228119 -169.72009659 -238.24245644 3 -1 -1 
14 1 1 -1.00000000 129.10000610 559.91183472 -166.84999466 -240.29014206 3 -1 -1 
15 1 2 1.00000000 128.19999695 561.20879745 -163.42211914 -242.06050873 3 -1 -1 
16 1 2 1.00000000 128.19999695 558.51992416 -162.52140427 -244.86955261 3 -1 -1 
17 1 1 -1.00000000 129.10000610 559.95634079 -164.46908188 -247.64777756 3 -1 -1 
18 1 1 -1.00000000 129.10000610 561.18207169 -167.15664291 -250.33597183 3 -1 -1 
19 1 2 1.00000000 128.19999695 564.53008652 -167.80825043 -252.26624298 3 -1 -1 
20 1 1 -1.00000000 129.10000610 566.86130905 -170.81496811 -253.22850037 3 -1 -1 
21 1 1 -1.00000000 129.10000610 570.59826660 -171.08621597 -253.39078903 3 -1 -1 
22 1 1 -1.00000000 129.10000610 573.10548782 -170.08440781 -250.30669785 3 -1 -1 
23 1 2 1.00000000 128.19999695 574.97548676 -171.42649078 -246.89585495 3 -1 -1 
24 1 1 -1.00000000 129.10000610 578.38567352 -172.69760895 -245.59482956 3 -1 -1 
25 1 1 -1.00000000 129.10000610 581.55548096 -171.63401031 -247.45186615 3 -1 -1 
26 1 2 1.00000000 128.19999695 584.18327332 -170.08215332 -245.30170441 3 -1 -1 
27 1 2 1.00000000 128.19999695 585.26231003 -168.14597702 -242.25841522 3 -1 -1 
28 1 2 1.00000000 128.19999695 582.92197037 -168.82468033 -239.27207375 3 -1 -1 
29 1 2 1.00000000 128.19999695 581.90186691 -167.25461197 -235.97646332 3 -1 -1 
30 1 2 1.00000000 128.19999695 584.48151779 -165.12856293 -234.71228027 3 -1 -1 
31 1 1 -1.00000000 129.10000610 585.01860809 -161.73807144 -236.91181946 3 -1 -1 
32 1 1 -1.00000000 129.10000610 581.74056625 -161.57316589 -238.65015221 3 -1 -1 
33 1 1 -1.00000000 129.10000610 581.78408051 -161.68677139 -242.46274567 3 -1 -1 
34 1 2 1.00000000 128.19999695 579.99408340 -164.55321884 -244.82708740 3 -1 -1 
35 1 2 1.00000000 128.19999695 578.10004044 -164.29409027 -248.02645874 3 -1 -1 
36 1 2 1.00000000 128.19999695 575.97560120 -161.17242050 -249.06208801 3 -1 -1 
37 1 1 -1.00000000 129.10000610 578.22454834 -159.49517822 -251.74022293 3 -1 -1 
38 1 2 1.00000000 128.19999695 579.60892105 -160.74106216 -255.41909409 3 -1 -1 
39 1 1 -1.00000000 129.10000610 576.57186508 -159.96384430 -257.73694229 3 -1 -1 
40 1 1 -1.00000000 129.10000610 573.95851517 -157.53001022 -259.11139679 3 -1 -1 
41 1 1 -1.00000000 129.10000610 572.36888885 -157.99050140 -262.26772690 3 -1 -1 
42 1 2 1.00000000 128.19999695 573.33450699 -157.99511337 -266.00300598 3 -1 -1 
43 1 1 -1.00000000 129.10000610 576.34432602 -158.65628052 -268.47918701 3 -1 -1 
44 1 2 1.00000000 128.19999695 578.49992752 -161.77178192 -268.63112640 3 -1 -1 
45 1 2 1.00000000 128.19999695 581.84994125 -162.88003922 -269.18254852 3 -1 -1 
46 1 2 1.00000000 128.19999695 582.85765839 -162.88624954 -272.62388611 3 -1 -1 
47 1 1 -1.00000000 129.10000610 581.06549072 -159.66184616 -274.26533508 3 -1 -1 
48 1 2 1.00000000 128.19999695 579.51237869 -160.02239990 -277.49718475 3 -1 -1 
49 1 1 -1.00000000 129.10000610 578.79113388 -157.27096939 -279.57125092 3 -1 -1 
50 1 2 1.00000000 128.19999695 576.10807800 -155.33285904 -281.32395935 3 -1 -1 
51 2 2 1.00000000 128.19999695 524.00720978 361.43107986 -232.12392616 3 2 -1 
52 2 1 -1.00000000 129.10000610 525.26589966 359.88896561 -235.86203575 3 2 -1 
53 2 2 1.00000000 128.19999695 528.89582825 360.39955902 -236.27757645 3 2 -1 
54 2 2 1.00000000 128.19999695 531.66328430 362.43270493 -238.26974678 3 2 -1 
55 2 2 1.00000000 128.19999695 532.87577820 364.41979599 -241.12169266 3 2 -1 
56 2 1 -1.00000000 129.10000610 532.89143372 368.33190918 -240.15769577 3 2 -1 
57 2 2 1.00000000 128.19999695 532.15091705 370.85696411 -242.68946075 3 2 -1 
58 2 1 -1.00000000 129.10000610 533.18318939 370.63718033 -246.48822784 3 2 -1 
59 2 1 -1.00000000 129.10000610 536.43134308 371.47428131 -248.21131516 3 2 -1 
60 2 1 -1.00000000 129.10000610 539.42632294 372.17708969 -250.44776917 3 2 -1 
61 2 2 1.00000000 128.19999695 541.62812805 370.03556442 -252.68378830 3 2 -1 
62 2 1 -1.00000000 129.10000610 543.74205017 368.32061005 -255.44375610 3 2 -1 
63 2 1 -1.00000000 129.10000610 547.03943634 366.19358063 -256.19537735 3 2 -1 
64 2 1 -1.00000000 129.10000610 549.30509949 365.88496780 -259.08997345 3 2 -1 
65 2 2 1.00000000 128.19999695 553.24835968 365.78352356 -258.84631348 3 2 -1 
66 2 2 1.00000000 128.19999695 554.69220734 366.02887344 -262.69377518 3 2 -1 
67 2 1 -1.00000000 129.10000610 556.15092468 368.34842682 -264.88847351 3 2 -1 
68 2 1 -1.00000000 129.10000610 557.80718994 365.99979782 -267.46189880 3 2 -1 
69 2 2 1.00000000 128.19999695 559.59510422 362.53760147 -267.91873169 3 2 -1 
70 2 1 -1.00000000 129.10000610 561.53459167 362.34047699 -264.50730896 3 2 -1 
71 2 1 -1.00000000 129.10000610 560.36577225 359.79187775 -262.43868256 3 2 -1 
72 2 1 -1.00000000 129.10000610 557.11321259 358.37310791 -260.84500122 3 2 -1 
73 2 2 1.00000000 128.19999695 553.49037933 359.31262970 -261.68935394 3 2 -1 
74 2 1 -1.00000000 129.10000610 550.42966461 357.52464676 -260.97709274 3 2 -1 
75 2 1 -1.00000000 129.10000610 549.06543732 354.34377289 -259.87660217 3 2 -1 
76 2 2 1.00000000 128.19999695 545.28076935 353.09572983 -260.70003128 3 2 -1 
77 2 2 1.00000000 128.19999695 543.51727295 353.01262665 -264.33519363 3 2 -1 
78 2 2 1.00000000 128.19999695 545.00621033 355.99582291 -266.17191315 3 2 -1 
79 2 2 1.00000000 128.19999695 545.79203796 356.54997253 -269.71290970 3 2 -1 
80 2 2 1.00000000 128.19999695 548.63004303 357.80382156 -272.10543060 3 2 -1 
81 2 1 -1.00000000 129.10000610 552.50000763 357.24415970 -271.44640350 3 2 -1 
82 2 1 -1.00000000 129.10000610 555.66602325 355.37693405 -271.41036224 3 2 -1 
83 2 1 -1.00000000 129.10000610 557.90930176 358.34068298 -272.92146301 3 2 -1 
84 2 2 1.00000000 128.19999695 555.98559570 361.24643326 -274.93890381 3 2 -1 
85 2 2 1.00000000 128.19999695 553.78042603 364.16701508 -273.88781738 3 2 -1 
86 2 2 1.00000000 128.19999695 553.02808380 367.52126694 -272.01618958 3 2 -1 
87 2 1 -1.00000000 129.10000610 551.42072296 366.50627899 -268.54675674 3 2 -1 
88 2 2 1.00000000 128.19999695 548.85537720 363.71355820 -268.55448532 3 2 -1 
89 2 1 -1.00000000 129.10000610 546.00447845 364.06737900 -266.84801102 3 2 -1 
90 2 1 -1.00000000 129.10000610 545.06513214 366.97736740 -264.53342819 3 2 -1 
91 2 1 -1.00000000 129.10000610 541.61574554 367.60606384 -266.04058456 3 2 -1 
92 2 2 1.00000000 128.19999695 541.17542267 365.79341125 -269.31317902 3 2 -1 
93 2 1 -1.00000000 129.10000610 540.49496460 362.35567093 -268.00043869 3 2 -1 
94 2 2 1.00000000 128.19999695 538.37641907 360.88286591 -265.33342743 3 2 -1 
95 2 2 1.00000000 128.19999695 534.84116364 361.88090134 -265.77480698 3 2 -1 
96 2 2 1.00000000 128.19999695 533.04252625 364.04467010 -268.56117630 3 2 -1 
97 2 1 -1.00000000 129.10000610 533.45423126 363.50986862 -272.30037689 3 2 -1 
98 2 2 1.00000000 128.19999695 533.47041321 366.78754425 -274.21802521 3 2 -1 
99 2 1 -1.00000000 129.10000610 532.00564575 367.01224136 -277.86000061 3 2 -1 
100 2 2 1.00000000 128.19999695 528.12567902 367.85505295 -278.66403198 3 2 -1 
101 3 2 1.00000000 128.19999695 305.99372101 -101.74747467 56.18665695 1 0 0 
102 3 1 -1.00000000 129.10000610 304.33197784 -104.08325195 58.97068787 1 -1 0 
103 3 2 1.00000000 128.19999695 304.36130524 -107.43930054 61.14497375 1 -1 0 
104 3 2 1.00000000 128.19999695 304.96289825 -106.93017578 64.59828949 1 -1 0 
105 3 2 1.00000000 128.19999695 306.76976013 -104.52933502 66.37969971 1 -1 0 
106 3 1 -1.00000000 129.10000610 309.30989075 -105.74995422 68.81697083 1 -1 0 
107 3 2 1.00000000 128.19999695 312.56050110 -107.13809204 69.36624146 2 -1 0 
108 3 1 -1.00000000 129.10000610 314.05075073 -110.51439667 69.16416931 2 -1 0 
109 3 1 -1.00000000 129.10000610 313.12702179 -111.96993256 65.71735382 2 -1 0 
110 3 1 -1.00000000 129.10000610 310.26428223 -114.35420990 64.82210541 1 -1 0 
111 3 2 1.00000000 128.19999695 307.82442474 -114.77330780 67.38563538 1 -1 0 
112 3 1 -1.00000000 129.10000610 306.50540161 -115.39982605 70.83146667 1 -1 0 
113 3 1 -1.00000000 129.10000610 305.37731171 -115.30011749 74.39327240 1 -1 0 
114 3 1 -1.00000000 129.10000610 306.90802002 -112.85200500 76.79682922 1 -1 0 
115 3 2 1.00000000 128.19999695 308.80155945 -109.95326233 77.04351807 1 -1 0 
116 3 2 1.00000000 128.19999695 311.82890320 -108.95055389 75.12529755 2 -1 0 
117 3 1 -1.00000000 129.10000610 313.90896606 -112.40808105 75.01464081 2 -1 0 
118 3 1 -1.00000000 129.10000610 316.51879120 -115.07554626 76.47662354 2 -1 0 
119 3 2 1.00000000 128.19999695 320.21961212 -116.92848206 76.29067230 2 -1 0 
120 3 1 -1.00000000 129.10000610 324.06513977 -116.24342346 75.18531036 2 -1 0 
121 3 1 -1.00000000 129.10000610 326.47505951 -115.96742249 78.25802612 2 -1 0 
122 3 1 -1.00000000 129.10000610 328.59835815 -118.24269104 79.79754639 2 -1 0 
123 3 2 1.00000000 128.19999695 332.09834290 -118.49521637 78.04432678 2 -1 0 
124 3 1 -1.00000000 129.10000610 335.10533142 -117.24313354 75.75371552 2 -1 0 
125 3 1 -1.00000000 129.10000610 337.33836365 -114.81291199 77.52717590 2 -1 0 
126 3 2 1.00000000 128.19999695 338.75258636 -115.61858368 80.94561768 2 -1 0 
127 3 2 1.00000000 128.19999695 342.62049103 -116.96997070 81.96834564 2 -1 0 
128 3 2 1.00000000 128.19999695 345.21049500 -115.83963776 84.30983734 2 -1 0 
129 3 2 1.00000000 128.19999695 347.81414795 -116.38603973 87.54267883 2 -1 0 
130 3 2 1.00000000 128.19999695 351.35042572 -117.74848175 87.01912689 2 -1 0 
131 3 1 -1.00000000 129.10000610 352.74820709 -118.07489777 83.74267578 2 -1 0 
132 3 1 -1.00000000 129.10000610 351.52921677 -118.29623413 79.95153809 2 -1 0 
133 3 1 -1.00000000 129.10000610 350.02055359 -114.91207123 79.32004547 2 -1 0 
134 3 2 1.00000000 128.19999695 347.23754120 -113.71083832 77.04875946 2 -1 0 
135 3 2 1.00000000 128.19999695 343.92310333 -113.82904053 75.59986115 2 -1 0 
136 3 2 1.00000000 128.19999695 341.52169037 -116.07786560 73.39666748 2 -1 0 
137 3 1 -1.00000000 129.10000610 341.78998566 -119.01059723 71.26552582 2 -1 0 
138 3 2 1.00000000 128.19999695 340.46627808 -122.51270294 70.09216309 2 -1 0 
139 3 1 -1.00000000 129.10000610 339.61006165 -124.17871094 73.60309601 2 -1 0 
140 3 1 -1.00000000 129.10000610 339.67496490 -121.92981720 76.62104797 2 -1 0 
141 3 1 -1.00000000 129.10000610 337.19776917 -122.94560242 79.72311401 2 -1 0 
142 3 2 1.00000000 128.19999695 335.35951996 -125.93711090 79.61493683 2 -1 0 
143 3 1 -1.00000000 129.10000610 335.52371216 -129.81185150 78.73562622 2 -1 0 
144 3 2 1.00000000 128.19999695 333.20596313 -132.59476471 79.86694336 2 -1 0 
145 3 2 1.00000000 128.19999695 333.55041504 -135.72649384 82.07154846 2 -1 0 
146 3 2 1.00000000 128.19999695 331.92211914 -139.13475800 83.58206940 2 -1 0 
147 3 1 -1.00000000 129.10000610 331.12738800 -142.91110229 84.48385620 2 -1 0 
148 3 2 1.00000000 128.19999695 333.23159790 -145.02877045 86.85514069 2 -1 0 
149 3 1 -1.00000000 129.10000610 332.02919006 -144.07685852 90.46176910 2 -1 0 
150 3 2 1.00000000 128.19999695 330.80181122 -140.58851624 91.27660370 2 -1 0 
151 4 2 1.00000000 128.19999695 -220.59769344 372.65586472 44.48085403 -1 2 0 
152 4 1 -1.00000000 129.10000610 -220.58116722 375.69094849 41.63804245 -1 2 0 
153 4 2 1.00000000 128.19999695 -221.60840416 375.25088501 38.16866684 -1 2 0 
154 4 2 1.00000000 128.19999695 -221.94377804 373.00482941 35.33659744 -1 2 0 
155 4 2 1.00000000 128.19999695 -224.91654015 373.50716782 32.86902618 -1 2 0 
156 4 1 -1.00000000 129.10000610 -226.64997482 376.38170624 34.05413437 -1 2 0 
157 4 2 1.00000000 128.19999695 -227.64591026 377.83347321 37.37340164 -1 2 0 
158 4 1 -1.00000000 129.10000610 -227.69701576 378.41518021 41.11965942 -1 2 0 
159 4 1 -1.00000000 129.10000610 -229.87878227 378.75147247 44.30840683 -1 2 0 
160 4 1 -1.00000000 129.10000610 -232.37338066 376.86094284 46.05474091 -1 2 0 
161 4 2 1.00000000 128.19999695 -232.32620811 373.36971283 46.57555389 -1 2 0 
162 4 1 -1.00000000 129.10000610 -229.55947304 370.81890869 47.15293884 -1 2 0 
163 4 1 -1.00000000 129.10000610 -227.92127800 367.62522125 48.18363571 -1 2 0 
164 4 1 -1.00000000 129.10000610 -230.20868492 364.39191055 47.57124710 -1 2 0 
165 4 2 1.00000000 128.19999695 -230.59939384 361.08780289 46.39374161 -1 2 0 
166 4 2 1.00000000 128.19999695 -230.64607811 358.22999573 43.40550995 -1 2 0 
167 4 1 -1.00000000 129.10000610 -230.95033455 357.26652908 39.83298874 -1 2 0 
168 4 1 -1.00000000 129.10000610 -231.14156914 354.34909058 36.90388107 -1 2 0 
169 4 2 1.00000000 128.19999695 -228.86347771 352.68490982 34.50424576 -1 2 0 
170 4 1 -1.00000000 129.10000610 -225.69012260 353.21371078 33.28068924 -1 2 0 
171 4 1 -1.00000000 129.10000610 -226.31298447 353.63398743 29.38326454 -1 2 0 
172 4 1 -1.00000000 129.10000610 -225.21220207 351.52909470 26.62245750 -1 2 0 
173 4 2 1.00000000 128.19999695 -226.09609032 350.10134125 22.93010521 -1 2 0 
174 4 1 -1.00000000 129.10000610 -224.19076347 350.46534729 19.74128342 -1 2 0 
175 4 1 -1.00000000 129.10000610 -226.45130539 351.21977997 16.81616402 -1 2 0 
176 4 2 1.00000000 128.19999695 -226.19353676 354.33894348 14.74989796 -1 2 0 
177 4 2 1.00000000 128.19999695 -224.56337166 353.23924637 11.61673450 -1 2 0 
178 4 2 1.00000000 128.19999695 -223.78418350 354.99531555 8.19296551 -1 2 0 
179 4 2 1.00000000 128.19999695 -223.33086777 358.58420181 7.12642050 -1 2 0 
180 4 2 1.00000000 128.19999695 -220.81387043 361.32995605 6.81436586 -1 2 0 
181 4 1 -1.00000000 129.10000610 -217.30278778 361.01292038 5.48742914 -1 2 0 
182 4 1 -1.00000000 129.10000610 -213.69009352 361.81039810 5.69858027 -1 2 0 
183 4 1 -1.00000000 129.10000610 -211.12887073 359.63437653 3.87235498 -1 2 0 
184 4 2 1.00000000 128.19999695 -208.87399185 357.11003876 5.43814754 -1 2 0 
185 4 2 1.00000000 128.19999695 -206.38801563 354.78452301 6.24608612 -1 2 0 
186 4 2 1.00000000 128.19999695 -202.88042164 353.40107727 5.78316545 -1 2 0 
187 4 1 -1.00000000 129.10000610 -200.49700832 354.97171402 8.36085701 -1 2 0 
188 4 2 1.00000000 128.19999695 -197.18318939 355.75267792 6.52353573 -1 2 0 
189 4 1 -1.00000000 129.10000610 -194.16780663 353.51444626 7.01240063 -1 2 0 
190 4 1 -1.00000000 129.10000610 -193.29939651 350.09625244 7.20498848 -1 2 0 
191 4 1 -1.00000000 129.10000610 -191.75069332 347.86894989 9.98100281 -1 2 0 
192 4 2 1.00000000 128.19999695 -188.96553612 345.60187531 10.09548092 -1 2 0 
193 4 1 -1.00000000 129.10000610 -185.64237595 344.57442474 11.75991535 -1 2 0 
194 4 2 1.00000000 128.19999695 -182.78731918 345.39227295 9.13193417 -1 2 0 
195 4 2 1.00000000 128.19999695 -181.30992317 344.90281677 5.66408634 -1 2 0 
196 4 2 1.00000000 128.19999695 -180.49449539 344.80409241 2.13506913 -1 2 0 
197 4 1 -1.00000000 129.10000610 -182.96792221 346.83836365 -0.19470775 -1 2 0 
198 4 2 1.00000000 128.19999695 -184.96672440 350.09719086 -0.37494543 -1 2 0 
199 4 1 -1.00000000 129.10000610 -184.02939224 353.30318451 -2.09727478 -1 2 0 
200 4 2 1.00000000 128.19999695 -181.81569862 353.69402313 -5.06532288 -1 2 0 
201 5 2 1.00000000 128.19999695 -213.86992073 -257.01692200 -208.94681633 -1 -1 -1 
202 5 1 -1.00000000 129.10000610 -217.13710976 -255.68332672 -208.62297630 -1 -1 -1 
203 5 2 1.00000000 128.19999695 -218.54061413 -252.23730087 -208.52219450 -1 -1 -1 
204 5 2 1.00000000 128.19999695 -219.55384731 -251.24238968 -204.96883488 -1 -1 -1 
205 5 2 1.00000000 128.19999695 -222.46635818 -250.65644455 -202.24190712 -1 -1 -1 
206 5 1 -1.00000000 129.10000610 -225.73783875 -252.02514648 -202.84780645 -1 -1 -1 
207 5 2 1.00000000 128.19999695 -227.79860115 -253.27607727 -199.62951612 -1 -1 -1 
208 5 1 -1.00000000 129.10000610 -227.91406059 -254.86857605 -196.15453053 -1 -1 -1 
209 5 1 -1.00000000 129.10000610 -230.28832436 -255.74383545 -193.39213848 -1 -1 -1 
210 5 1 -1.00000000 129.10000610 -234.04805374 -255.30598068 -193.81572056 -1 -1 -1 
211 5 2 1.00000000 128.19999695 -237.19080353 -257.67848206 -193.36404133 -1 -1 -1 
212 5 1 -1.00000000 129.10000610 -240.39816666 -257.69400406 -191.73846340 -1 -1 -1 
213 5 1 -1.00000000 129.10000610 -243.07180405 -258.56430435 -194.55761719 -1 -1 -1 
214 5 1 -1.00000000 129.10000610 -242.41489029 -257.55495453 -198.28435707 -1 -1 -1 
215 5 2 1.00000000 128.19999695 -239.00660896 -258.51932144 -200.47910261 -1 -1 -1 
216 5 2 1.00000000 128.19999695 -235.66588783 -258.70846939 -202.01590157 -1 -1 -1 
217 5 1 -1.00000000 129.10000610 -234.62276077 -259.57538223 -205.58708370 -1 -1 -1 
218 5 1 -1.00000000 129.10000610 -233.97934723 -263.25497055 -207.33361818 -1 -1 -1 
219 5 2 1.00000000 128.19999695 -232.67928886 -266.20919800 -204.97664380 -1 -1 -1 
220 5 1 -1.00000000 129.10000610 -232.56486511 -269.81598282 -203.82745910 -1 -1 -1 
221 5 1 -1.00000000 129.10000610 -232.26278496 -271.65447235 -200.38591528 -1 -1 -1 
222 5 1 -1.00000000 129.10000610 -233.81569290 -275.00881958 -199.70400095 -1 -1 -1 
223 5 2 1.00000000 128.19999695 -233.39590836 -275.05823517 -195.92833138 -1 -1 -1 
224 5 1 -1.00000000 129.10000610 -233.94711113 -272.43601227 -193.02477837 -1 -1 -1 
225 5 1 -1.00000000 129.10000610 -235.81869125 -269.94807816 -190.89063072 -1 -1 -1 
226 5 2 1.00000000 128.19999695 -238.04070663 -267.09738922 -192.05140877 -1 -1 -1 
227 5 2 1.00000000 128.19999695 -236.97041321 -263.99916077 -193.92279148 -1 -1 -1 
228 5 2 1.00000000 128.19999695 -237.29248238 -264.25049591 -197.83046722 -1 -1 -1 
229 5 2 1.00000000 128.19999695 -237.57584190 -267.47079849 -199.91707182 -1 -1 -1 
230 5 2 1.00000000 128.19999695 -239.00646019 -268.70585251 -203.28436279 -1 -1 -1 
231 5 1 -1.00000000 129.10000610 -241.91293716 -270.54439545 -205.35241175 -1 -1 -1 
232 5 1 -1.00000000 129.10000610 -244.53259277 -267.92383957 -206.16032279 -1 -1 -1 
233 5 1 -1.00000000 129.10000610 -246.97177505 -268.82461548 -209.10138988 -1 -1 -1 
234 5 2 1.00000000 128.19999695 -247.77400208 -266.50856400 -211.56203175 -1 -1 -1 
235 5 2 1.00000000 128.19999695 -248.80414963 -263.66582108 -213.90213108 -1 -1 -1 
236 5 2 1.00000000 128.19999695 -251.82777786 -261.98115158 -215.63500977 -1 -1 -1 
237 5 1 -1.00000000 129.10000610 -255.43027115 -261.91755295 -216.71156979 -1 -1 -1 
238 5 2 1.00000000 128.19999695 -257.31659317 -259.48762512 -219.37040424 -1 -1 -1 
239 5 1 -1.00000000 129.10000610 -256.44712448 -256.74036026 -221.87482262 -1 -1 -1 
240 5 1 -1.00000000 129.10000610 -258.62551880 -255.76754761 -224.73674393 -1 -1 -1 
241 5 1 -1.00000000 129.10000610 -261.42528915 -255.10739517 -227.37798309 -1 -1 -1 
242 5 2 1.00000000 128.19999695 -262.90104294 -251.89222336 -226.56352615 -1 -1 -1 
243 5 1 -1.00000000 129.10000610 -263.80435944 -251.03313828 -223.40791702 -1 -1 -1 
244 5 2 1.00000000 128.19999695 -266.98506165 -250.33546829 -221.53948593 -1 -1 -1 
245 5 2 1.00000000 128.19999695 -268.37916183 -247.28378296 -222.98906708 -1 -1 -1 
246 5 2 1.00000000 128.19999695 -271.54233551 -245.26570129 -223.88863182 -1 -1 -1 
247 5 1 -1.00000000 129.10000610 -273.23876190 -247.19093704 -226.60858727 -1 -1 -1 
248 5 2 1.00000000 128.19999695 -272.03632355 -249.76617813 -229.40313911 -1 -1 -1 
249 5 1 -1.00000000 129.10000610 -273.89118195 -252.75106812 -230.00749588 -1 -1 -1 
250 5 2 1.00000000 128.19999695 -274.88962555 -256.00691223 -231.67372704 -1 -1 -1 
251 6 2 1.00000000 128.19999695 531.25364685 -472.22046280 -99.71715546 3 -2 0 
252 6 1 -1.00000000 129.10000610 527.32897949 -471.88497543 -99.80042267 3 -2 0 
253 6 2 1.00000000 128.19999695 524.00802612 -471.56885529 -101.32175446 3 -2 0 
254 6 2 1.00000000 128.19999695 521.54680634 -474.15991974 -101.46459961 3 -2 0 
255 6 2 1.00000000 128.19999695 517.87657166 -474.22906876 -101.93080139 2 -2 0 
256 6 1 -1.00000000 129.10000610 516.39803314 -477.52288437 -101.33754730 2 -2 0 
257 6 2 1.00000000 128.19999695 517.83113098 -480.42687225 -99.14508820 2 -2 0 
258 6 1 -1.00000000 129.10000610 519.96397400 -483.19559479 -98.46524048 3 -2 0 
259 6 1 -1.00000000 129.10000610 523.76579285 -483.50788879 -98.75633240 3 -2 0 
260 6 1 -1.00000000 129.10000610 526.17595673 -480.88948059 -100.29937744 3 -2 0 
261 6 2 1.00000000 128.19999695 525.44144440 -478.54464722 -103.30149078 3 -2 0 
262 6 1 -1.00000000 129.10000610 525.73377228 -478.65185928 -107.21405792 3 -2 -1 
263 6 1 -1.00000000 129.10000610 523.97638702 -475.63573456 -109.22617340 3 -2 -1 
264 6 1 -1.00000000 129.10000610 520.31271362 -475.78819656 -110.11183929 3 -2 -1 
265 6 2 1.00000000 128.19999695 520.21106720 -472.28398514 -111.91239929 3 -2 -1 
266 6 2 1.00000000 128.19999695 520.02588654 -470.55408859 -115.27104950 3 -2 -1 
267 6 1 -1.00000000 129.10000610 520.81883240 -467.15238571 -117.02352905 3 -2 -1 
268 6 1 -1.00000000 129.10000610 518.90734100 -465.52478790 -119.81475830 3 -2 -1 
269 6 2 1.00000000 128.19999695 520.66600800 -462.58478928 -121.65907288 3 -2 -1 
270 6 1 -1.00000000 129.10000610 523.45038605 -460.24205780 -121.23472595 3 -2 -1 
271 6 1 -1.00000000 129.10000610 526.08710480 -462.88049316 -119.86607361 3 -2 -1 
272 6 1 -1.00000000 129.10000610 529.58865356 -464.66197968 -120.50058746 3 -2 -1 
273 6 2 1.00000000 128.19999695 529.58424377 -466.94238281 -123.05757904 3 -2 -1 
274 6 1 -1.00000000 129.10000610 528.76658630 -466.14211655 -126.48112488 3 -2 -1 
275 6 1 -1.00000000 129.10000610 531.44295502 -463.06038666 -126.91670227 3 -2 -1 
276 6 2 1.00000000 128.19999695 530.45293427 -462.00232315 -130.77506256 3 -2 -1 
277 6 2 1.00000000 128.19999695 528.78956604 -458.58243179 -130.46021271 3 -2 -1 
278 6 2 1.00000000 128.19999695 527.72040558 -455.39462662 -132.10755157 3 -2 -1 
279 6 2 1.00000000 128.19999695 527.03745270 -451.98018265 -133.61101532 3 -2 -1 
280 6 2 1.00000000 128.19999695 528.17168427 -449.58544540 -136.44550323 3 -2 -1 
281 6 1 -1.00000000 129.10000610 532.03812408 -448.83141327 -135.93343353 3 -2 -1 
282 6 1 -1.00000000 129.10000610 535.86324310 -448.51583099 -134.93797302 3 -2 -1 
283 6 1 -1.00000000 129.10000610 538.94854736 -446.53451157 -136.12995148 3 -2 -1 
284 6 2 1.00000000 128.19999695 538.07785797 -445.08728409 -139.41297150 3 -2 -1 
285 6 2 1.00000000 128.19999695 534.75257874 -445.91027069 -140.94419098 3 -2 -1 
286 6 2 1.00000000 128.19999695 534.82620239 -448.87435150 -143.33244324 3 -2 -1 
287 6 1 -1.00000000 129.10000610 537.60719299 -450.12445450 -145.49336243 3 -2 -1 
288 6 2 1.00000000 128.19999695 540.53763580 -447.99821472 -146.34520721 3 -2 -1 
289 6 1 -1.00000000 129.10000610 540.86256409 -446.31307793 -149.53478622 3 -2 -1 
290 6 1 -1.00000000 129.10000610 542.70473480 -443.53562355 -151.56836700 3 -2 -1 
291 6 1 -1.00000000 129.10000610 541.67068481 -443.59571266 -155.05538559 3 -2 -1 
292 6 2 1.00000000 128.19999695 538.72176361 -445.29835129 -155.83027649 3 -2 -1 
293 6 1 -1.00000000 129.10000610 535.90242004 -447.69472885 -155.47331619 3 -2 -1 
294 6 2 1.00000000 128.19999695 536.55815125 -451.07095718 -154.01950836 3 -2 -1 
295 6 2 1.00000000 128.19999695 536.87851715 -454.25213623 -155.69614029 3 -2 -1 
296 6 2 1.00000000 128.19999695 534.86224365 -457.52458572 -156.05337524 3 -2 -1 
297 6 1 -1.00000000 129.10000610 530.92089844 -459.42749786 -156.30934906 3 -2 -1 
298 6 2 1.00000000 128.19999695 529.23194885 -457.02014160 -153.93830872 3 -2 -1 
299 6 1 -1.00000000 129.10000610 525.91776276 -457.20128632 -152.19658661 3 -2 -1 
300 6 2 1.00000000 128.19999695 525.06614685 -456.34029007 -148.60075760 3 -2 -1 
301 7 2 1.00000000 128.19999695 -17.70546913 -108.94347382 -822.43384075 0 -1 -4 
302 7 1 -1.00000000 129.10000610 -21.28965569 -109.72824097 -821.94608355 0 -1 -4 
303 7 2 1.00000000 128.19999695 -24.70656776 -109.61169434 -821.18618774 0 -1 -4 
304 7 2 1.00000000 128.19999695 -28.56347084 -109.20870209 -821.36441326 0 -1 -4 
305 7 2 1.00000000 128.19999695 -29.75250816 -107.38040924 -824.50506639 0 -1 -4 
306 7 1 -1.00000000 129.10000610 -28.00133133 -109.07737732 -827.37019134 0 -1 -4 
307 7 2 1.00000000 128.19999695 -27.70954323 -112.91130829 -827.50424886 0 -1 -4 
308 7 1 -1.00000000 129.10000610 -27.15244484 -115.89165497 -825.11324406 0 -1 -4 
309 7 1 -1.00000000 129.10000610 -23.82369423 -117.05192566 -827.07832909 0 -1 -4 
310 7 1 -1.00000000 129.10000610 -21.13551903 -114.70704651 -828.49169326 0 -1 -4 
311 7 2 1.00000000 128.19999695 -19.85515213 -111.74414825 -829.60582182 0 -1 -4 
312 7 1 -1.00000000 129.10000610 -20.74009895 -110.25740051 -833.04767823 0 -1 -4 
313 7 1 -1.00000000 129.10000610 -22.55748940 -106.96405029 -832.24378037 0 -1 -4 
314 7 1 -1.00000000 129.10000610 -21.64476204 -103.92765808 -829.87677887 0 -1 -4 
315 7 2 1.00000000 128.19999695 -20.74838257 -100.22985077 -828.84735018 0 0 -4 
316 7 2 1.00000000 128.19999695 -21.52611160 -97.32839203 -826.53656030 0 0 -4 
317 7 1 -1.00000000 129.10000610 -19.72863770 -96.73889160 -823.15364790 0 0 -4 
318 7 1 -1.00000000 129.10000610 -16.44102287 -97.93591309 -821.64699507 0 0 -4 
319 7 2 1.00000000 128.19999695 -15.70134830 -101.59663391 -822.00689316 0 0 -4 
320 7 1 -1.00000000 129.10000610 -13.43021774 -104.65017700 -821.61176491 0 -1 -4 
321 7 1 -1.00000000 129.10000610 -11.28833294 -108.06507874 -820.34518528 0 -1 -4 
322 7 1 -1.00000000 129.10000610 -7.89452839 -107.05371094 -819.58376408 0 -1 -4 
323 7 2 1.00000000 128.19999695 -7.75978994 -104.76071930 -816.64721394 0 -1 -4 
324 7 1 -1.00000000 129.10000610 -5.28287363 -104.34700012 -813.48813152 0 -1 -4 
325 7 1 -1.00000000 129.10000610 -5.58848095 -100.28820038 -812.79221916 0 0 -4 
326 7 2 1.00000000 128.19999695 -4.66767502 -97.32295990 -814.79165745 0 0 -4 
327 7 2 1.00000000 128.19999695 -6.02373171 -95.80111694 -817.89380741 0 0 -4 
328 7 2 1.00000000 128.19999695 -3.66932082 -96.26739502 -820.92987061 0 0 -4 
329 7 2 1.00000000 128.19999695 -2.81405139 -96.78038788 -824.54980612 0 0 -4 
330 7 2 1.00000000 128.19999695 -3.69700503 -97.14930725 -828.24678528 0 0 -4 
331 7 1 -1.00000000 129.10000610 -6.72696304 -99.79624939 -828.27968073 0 0 -4 
332 7 1 -1.00000000 129.10000610 -10.44806480 -100.73844147 -827.91613996 0 0 -4 
333 7 1 -1.00000000 129.10000610 -13.59020996 -101.56803131 -829.53355790 0 0 -4 
334 7 2 1.00000000 128.19999695 -14.83207607 -100.36280060 -832.99266410 0 0 -4 
335 7 2 1.00000000 128.19999695 -16.42483330 -99.75914001 -835.95684099 0 0 -4 
336 7 2 1.00000000 128.19999695 -17.13833809 -97.26329041 -838.68676662 0 0 -4 
337 7 1 -1.00000000 129.10000610 -20.76941109 -96.61391449 -839.79313946 0 0 -4 
338 7 2 1.00000000 128.19999695 -23.41430283 -97.09533691 -842.42772007 0 0 -4 
339 7 1 -1.00000000 129.10000610 -26.07948303 -97.51174164 -845.16267014 0 0 -4 
340 7 1 -1.00000000 129.10000610 -27.55329323 -95.30750275 -847.44636345 0 0 -4 
341 7 1 -1.00000000 129.10000610 -29.62712669 -92.30846405 -846.94855690 0 0 -4 
342 7 2 1.00000000 128.19999695 -31.44199944 -89.86039734 -844.78667355 0 0 -4 
343 7 1 -1.00000000 129.10000610 -34.83974457 -90.98469543 -843.17158031 0 0 -4 
344 7 2 1.00000000 128.19999695 -36.69772720 -93.21306610 -840.59532261 0 0 -4 
345 7 2 1.00000000 128.19999695 -35.51234436 -96.29674530 -842.40169430 0 0 -4 
346 7 2 1.00000000 128.19999695 -33.07479858 -97.69490814 -844.88935280 0 0 -4 
347 7 1 -1.00000000 129.10000610 -31.83852386 -101.00693512 -845.43679619 0 0 -4 
348 7 2 1.00000000 128.19999695 -30.44436646 -101.34341431 -849.19299316 0 0 -4 
349 7 1 -1.00000000 129.10000610 -31.28338051 -99.51665497 -852.16928291 0 0 -4 
350 7 2 1.00000000 128.19999695 -32.22339249 -96.00937653 -852.42295074 0 0 -4 
351 8 2 1.00000000 128.19999695 53.21492767 -175.26515198 601.39825439 0 -1 3 
352 8 1 -1.00000000 129.10000610 56.73385239 -176.94121933 601.15148163 0 -1 3 
353 8 2 1.00000000 128.19999695 60.30138016 -176.59891319 600.19843864 0 -1 3 
354 8 2 1.00000000 128.19999695 60.88495636 -173.27052689 598.34080315 0 -1 3 
355 8 2 1.00000000 128.19999695 64.08105469 -172.70140457 596.41732216 0 -1 3 
356 8 1 -1.00000000 129.10000610 67.39749146 -172.63997650 598.45471382 0 -1 3 
357 8 2 1.00000000 128.19999695 69.25580597 -172.32490158 601.65075302 0 -1 3 
358 8 1 -1.00000000 129.10000610 68.38881683 -172.83491516 605.73724174 0 -1 3 
359 8 1 -1.00000000 129.10000610 71.59043121 -173.31367493 608.25984859 0 -1 3 
360 8 1 -1.00000000 129.10000610 71.31628418 -177.19216156 609.36474895 0 -1 3 
361 8 2 1.00000000 128.19999695 72.95816803 -179.91475296 607.47353268 0 -1 3 
362 8 1 -1.00000000 129.10000610 75.53578949 -182.38467598 606.67108440 0 -1 3 
363 8 1 -1.00000000 129.10000610 77.83208466 -185.65118980 606.37584591 0 -1 3 
364 8 1 -1.00000000 129.10000610 81.70815277 -186.08264732 606.84781075 0 -1 3 
365 8 2 1.00000000 128.19999695 83.30508423 -186.00362968 610.24380875 0 -1 3 
366 8 2 1.00000000 128.19999695 84.36692047 -189.16976929 612.13813782 0 -1 3 
367 8 1 -1.00000000 129.10000610 88.05981445 -190.20554924 611.39057159 0 -1 3 