ITEM: TIMESTEP
40500000 
ITEM: NUMBER OF ATOMS 
25000 
ITEM: BOX BOUNDS pp pp pp 
-103.678017 103.678017 
-103.678017 103.678017 
-103.678017 103.678017 
ITEM: ATOMS id mol type q mass xu yu zu ix iy iz 
1 1 2 1.00000000 128.19999695 403.29512787 76.42780304 -343.40599823 2 0 -2 
2 1 1 -1.00000000 129.10000610 403.63425350 73.68647003 -341.08220673 2 0 -2 
3 1 2 1.00000000 128.19999695 405.02047825 70.40225983 -340.44813538 2 0 -2 
4 1 2 1.00000000 128.19999695 404.60701847 67.84247589 -337.25035095 2 0 -2 
5 1 2 1.00000000 128.19999695 404.73991394 64.26219940 -335.69589996 2 0 -2 
6 1 1 -1.00000000 129.10000610 402.10384560 61.63196945 -335.96336365 2 0 -2 
7 1 2 1.00000000 128.19999695 400.22101021 59.82402802 -338.64868164 2 0 -2 
8 1 1 -1.00000000 129.10000610 397.72814178 62.45084763 -339.95756531 2 0 -2 
9 1 1 -1.00000000 129.10000610 399.66145992 65.22087097 -341.22779846 2 0 -2 
10 1 1 -1.00000000 129.10000610 398.70991516 65.91994476 -344.92498779 2 0 -2 
11 1 2 1.00000000 128.19999695 396.74786377 65.88142395 -347.99306488 2 0 -2 
12 1 1 -1.00000000 129.10000610 397.45142365 67.86764526 -351.19935226 2 0 -2 
13 1 1 -1.00000000 129.10000610 400.71458721 67.06271362 -353.47534943 2 0 -2 
14 1 1 -1.00000000 129.10000610 403.43080711 65.59417725 -351.32814789 2 0 -2 
15 1 2 1.00000000 128.19999695 406.15543938 67.64874268 -349.54920197 2 0 -2 
16 1 2 1.00000000 128.19999695 408.19320726 65.10164642 -347.95684814 2 0 -2 
17 1 1 -1.00000000 129.10000610 407.66192913 65.47944641 -344.04265594 2 0 -2 
18 1 1 -1.00000000 129.10000610 405.60155773 62.30235291 -343.66230011 2 0 -2 
19 1 2 1.00000000 128.19999695 407.37235165 59.06428909 -342.45462036 2 0 -2 
20 1 1 -1.00000000 129.10000610 407.38816977 55.31123352 -343.64235687 2 0 -2 
21 1 1 -1.00000000 129.10000610 403.49446678 55.29216385 -344.16777802 2 0 -2 
22 1 1 -1.00000000 129.10000610 401.67401886 53.64141083 -347.14349365 2 0 -2 
23 1 2 1.00000000 128.19999695 401.02113914 56.04586029 -350.40731812 2 0 -2 
24 1 1 -1.00000000 129.10000610 401.52804279 54.98028564 -354.01770020 2 0 -2 
25 1 1 -1.00000000 129.10000610 403.65436172 51.76003647 -355.07975006 2 0 -2 
26 1 2 1.00000000 128.19999695 406.53578854 51.78013611 -352.25344467 2 0 -2 
27 1 2 1.00000000 128.19999695 406.22774506 47.70193100 -351.25528336 2 0 -2 
28 1 2 1.00000000 128.19999695 406.64380169 45.02355957 -348.71596527 2 0 -2 
29 1 2 1.00000000 128.19999695 407.74771357 45.87888336 -344.87162781 2 0 -2 
30 1 2 1.00000000 128.19999695 411.18260956 46.73630905 -344.04042053 2 0 -2 
31 1 1 -1.00000000 129.10000610 411.34800100 47.35567093 -340.25445557 2 0 -2 
32 1 1 -1.00000000 129.10000610 414.42404714 49.72225189 -340.37528229 2 0 -2 
33 1 1 -1.00000000 129.10000610 415.40630549 53.35958481 -341.78427124 2 0 -2 
34 1 2 1.00000000 128.19999695 415.31836176 56.44258881 -339.50166321 2 0 -2 
35 1 2 1.00000000 128.19999695 416.15453982 59.14007187 -337.16688538 2 0 -2 
36 1 2 1.00000000 128.19999695 414.17004824 61.79426193 -335.20726013 2 0 -2 
37 1 1 -1.00000000 129.10000610 415.73177087 61.52981949 -331.66145325 2 0 -2 
38 1 2 1.00000000 128.19999695 419.61947870 60.61085129 -331.09938049 2 0 -2 
39 1 1 -1.00000000 129.10000610 420.21432638 56.97185516 -330.70576477 2 0 -2 
40 1 1 -1.00000000 129.10000610 419.04337502 53.02611542 -331.00933075 2 0 -2 
41 1 1 -1.00000000 129.10000610 418.00271130 49.33681488 -331.76324463 2 0 -2 
42 1 2 1.00000000 128.19999695 414.53778890 49.59768677 -333.80863190 2 0 -2 
43 1 1 -1.00000000 129.10000610 411.49757290 51.76742172 -333.26400757 2 0 -2 
44 1 2 1.00000000 128.19999695 410.17858648 54.18966293 -330.63665771 2 0 -2 
45 1 2 1.00000000 128.19999695 408.22089481 57.26628113 -330.37374115 2 0 -2 
46 1 2 1.00000000 128.19999695 406.45772171 59.32859039 -327.81870270 2 0 -2 
47 1 1 -1.00000000 129.10000610 406.25480270 63.19705963 -327.92457581 2 0 -2 
48 1 2 1.00000000 128.19999695 407.46955442 66.40825653 -329.43915558 2 0 -2 
49 1 1 -1.00000000 129.10000610 404.95720387 69.07710266 -329.95530701 2 0 -2 
50 1 2 1.00000000 128.19999695 405.68064499 72.34996033 -328.11522675 2 0 -2 
51 2 2 1.00000000 128.19999695 544.23300934 458.30344009 -239.92409897 3 2 -1 
52 2 1 -1.00000000 129.10000610 541.38986969 457.52561188 -237.29397392 3 2 -1 
53 2 2 1.00000000 128.19999695 541.57588196 459.64514923 -234.52812386 3 2 -1 
54 2 2 1.00000000 128.19999695 537.91552734 461.50554657 -233.91362190 3 2 -1 
55 2 2 1.00000000 128.19999695 534.67195892 461.41352844 -231.50946045 3 2 -1 
56 2 1 -1.00000000 129.10000610 532.66564178 459.56980133 -228.84525108 3 2 -1 
57 2 2 1.00000000 128.19999695 528.88840485 458.56818390 -228.52057648 3 2 -1 
58 2 1 -1.00000000 129.10000610 527.15454102 459.37034225 -225.45606804 3 2 -1 
59 2 1 -1.00000000 129.10000610 523.75228882 460.14572144 -224.41674232 3 2 -1 
60 2 1 -1.00000000 129.10000610 521.30069733 462.47653198 -222.50842285 3 2 -1 
61 2 2 1.00000000 128.19999695 517.61873627 463.48873138 -222.32541847 2 2 -1 
62 2 1 -1.00000000 129.10000610 517.99978638 467.16470718 -221.62837696 2 2 -1 
63 2 1 -1.00000000 129.10000610 516.31541443 470.60693359 -223.27369690 2 2 -1 
64 2 1 -1.00000000 129.10000610 516.90802765 474.39198303 -223.17758465 2 2 -1 
65 2 2 1.00000000 128.19999695 519.21214294 476.55801392 -221.58054638 3 2 -1 
66 2 2 1.00000000 128.19999695 522.55016327 478.23992538 -220.75680828 3 2 -1 
67 2 1 -1.00000000 129.10000610 524.92798615 479.68917084 -223.39823914 3 2 -1 
68 2 1 -1.00000000 129.10000610 525.39730072 477.31569672 -226.08995628 3 2 -1 
69 2 2 1.00000000 128.19999695 525.30116272 477.88000488 -230.00990105 3 2 -1 
70 2 1 -1.00000000 129.10000610 524.59062958 479.81896973 -233.39159584 3 2 -1 
71 2 1 -1.00000000 129.10000610 523.40565491 476.66076279 -235.64863014 3 2 -1 
72 2 1 -1.00000000 129.10000610 524.25869751 473.02432251 -236.82058907 3 2 -1 
73 2 2 1.00000000 128.19999695 525.97920990 471.13153839 -233.76475906 3 2 -1 
74 2 1 -1.00000000 129.10000610 528.63129425 468.63805389 -232.58242989 3 2 -1 
75 2 1 -1.00000000 129.10000610 528.64005280 465.26950836 -230.18356895 3 2 -1 
76 2 2 1.00000000 128.19999695 528.88169861 464.89083481 -226.85237694 3 2 -1 
77 2 2 1.00000000 128.19999695 526.21798706 466.13401031 -224.64730453 3 2 -1 
78 2 2 1.00000000 128.19999695 524.71747589 469.63082504 -224.55606270 3 2 -1 
79 2 2 1.00000000 128.19999695 525.17256165 470.67934036 -221.01632595 3 2 -1 
80 2 2 1.00000000 128.19999695 528.54801941 472.95727539 -220.81743526 3 2 -1 
81 2 1 -1.00000000 129.10000610 531.59535217 471.40744781 -222.66401863 3 2 -1 
82 2 1 -1.00000000 129.10000610 533.83925629 471.77714157 -225.55437469 3 2 -1 
83 2 1 -1.00000000 129.10000610 536.26760864 468.68216705 -225.89711380 3 2 -1 
84 2 2 1.00000000 128.19999695 538.58109283 467.06035614 -228.76892281 3 2 -1 
85 2 2 1.00000000 128.19999695 541.33604431 468.72548294 -230.60233307 3 2 -1 
86 2 2 1.00000000 128.19999695 541.53273010 468.48274994 -234.73344803 3 2 -1 
87 2 1 -1.00000000 129.10000610 540.78578949 466.34032822 -237.72237587 3 2 -1 
88 2 2 1.00000000 128.19999695 541.58037567 468.27747345 -240.91514587 3 2 -1 
89 2 1 -1.00000000 129.10000610 544.33204651 470.15701675 -242.20498276 3 2 -1 
90 2 1 -1.00000000 129.10000610 544.71434021 473.77627182 -241.37659073 3 2 -1 
91 2 1 -1.00000000 129.10000610 543.23869324 477.15685654 -243.00276184 3 2 -1 
92 2 2 1.00000000 128.19999695 544.93900299 479.82282257 -240.92530060 3 2 -1 
93 2 1 -1.00000000 129.10000610 541.64510345 481.20594788 -239.06112289 3 2 -1 
94 2 2 1.00000000 128.19999695 539.90627289 479.42903900 -236.05651665 3 2 -1 
95 2 2 1.00000000 128.19999695 539.18330383 475.55862427 -236.99286461 3 2 -1 
96 2 2 1.00000000 128.19999695 536.65951538 473.92540359 -239.27868652 3 2 -1 
97 2 1 -1.00000000 129.10000610 534.98822784 471.61706543 -236.65970993 3 2 -1 
98 2 2 1.00000000 128.19999695 531.65402222 469.72570419 -237.69782448 3 2 -1 
99 2 1 -1.00000000 129.10000610 530.11431885 466.43092346 -238.15015602 3 2 -1 
100 2 2 1.00000000 128.19999695 532.30720520 463.29425430 -239.12528038 3 2 -1 
101 3 2 1.00000000 128.19999695 319.19557190 -62.55089569 15.32634163 2 0 0 
102 3 1 -1.00000000 129.10000610 317.39006805 -65.97151947 15.84183502 2 0 0 
103 3 2 1.00000000 128.19999695 316.57389069 -66.76457214 11.88629436 2 0 0 
104 3 2 1.00000000 128.19999695 315.63001251 -67.21070099 7.77465153 2 0 0 
105 3 2 1.00000000 128.19999695 316.81953430 -70.18557739 6.30790138 2 0 0 
106 3 1 -1.00000000 129.10000610 315.22104645 -73.38789368 4.60907030 2 0 0 
107 3 2 1.00000000 128.19999695 312.21516418 -75.12219238 6.16677141 2 0 0 
108 3 1 -1.00000000 129.10000610 309.51643372 -74.80583191 3.47815704 1 0 0 
109 3 1 -1.00000000 129.10000610 306.68182373 -72.28231049 3.14652419 1 0 0 
110 3 1 -1.00000000 129.10000610 304.02604675 -71.89877319 0.58862680 1 0 0 
111 3 2 1.00000000 128.19999695 301.90821838 -73.24468231 -2.77585387 1 0 0 
112 3 1 -1.00000000 129.10000610 302.11076355 -71.00351715 -5.83552265 1 0 0 
113 3 1 -1.00000000 129.10000610 304.07025146 -67.58136749 -6.68717670 1 0 0 
114 3 1 -1.00000000 129.10000610 307.30805969 -67.06349945 -8.08716202 1 0 0 
115 3 2 1.00000000 128.19999695 310.64150238 -66.42018890 -6.02184105 1 0 0 
116 3 2 1.00000000 128.19999695 313.35992432 -65.11414337 -8.37508202 2 0 0 
117 3 1 -1.00000000 129.10000610 316.80621338 -66.29504395 -9.36154461 2 0 0 
118 3 1 -1.00000000 129.10000610 319.34000397 -65.71245575 -6.12808466 2 0 0 
119 3 2 1.00000000 128.19999695 318.01616669 -62.42136002 -4.60729218 2 0 0 
120 3 1 -1.00000000 129.10000610 315.45283508 -59.74127579 -4.77876139 2 0 0 
121 3 1 -1.00000000 129.10000610 311.68605804 -58.01889420 -5.53706121 2 0 0 
122 3 1 -1.00000000 129.10000610 309.36733246 -55.59919739 -7.10232735 1 0 0 
123 3 2 1.00000000 128.19999695 308.01963806 -55.60296631 -10.47987080 1 0 0 
124 3 1 -1.00000000 129.10000610 309.93572235 -58.49393463 -12.31897163 1 0 0 
125 3 1 -1.00000000 129.10000610 309.03450775 -59.83972931 -16.04755783 1 0 0 
126 3 2 1.00000000 128.19999695 306.47859192 -62.00286484 -18.10961151 1 0 0 
127 3 2 1.00000000 128.19999695 303.75775909 -64.34220123 -17.09179497 1 0 0 
128 3 2 1.00000000 128.19999695 302.46090698 -65.74481964 -13.84319115 1 0 0 
129 3 2 1.00000000 128.19999695 303.57386780 -69.38975525 -14.45084286 1 0 0 
130 3 2 1.00000000 128.19999695 301.68244171 -72.38308716 -16.15915108 1 0 0 
131 3 1 -1.00000000 129.10000610 303.55083466 -73.99475098 -19.36050034 1 0 0 
132 3 1 -1.00000000 129.10000610 304.70403290 -71.02145386 -21.22301292 1 0 0 
133 3 1 -1.00000000 129.10000610 302.25920105 -68.74727631 -23.25000191 1 0 0 
134 3 2 1.00000000 128.19999695 304.03805542 -68.16271210 -26.85004807 1 0 0 
135 3 2 1.00000000 128.19999695 307.17341614 -65.53720856 -26.88929939 1 0 0 
136 3 2 1.00000000 128.19999695 307.77052307 -63.59883499 -23.89813423 1 0 0 
137 3 1 -1.00000000 129.10000610 309.95801544 -65.71657562 -21.03799248 1 0 0 
138 3 2 1.00000000 128.19999695 312.40615082 -68.40938568 -19.64211655 2 0 0 
139 3 1 -1.00000000 129.10000610 314.74697876 -67.73310852 -16.75104713 2 0 0 
140 3 1 -1.00000000 129.10000610 318.05839539 -69.56419373 -17.19639015 2 0 0 
141 3 1 -1.00000000 129.10000610 319.56544495 -72.08317566 -14.72448349 2 0 0 
142 3 2 1.00000000 128.19999695 317.09111023 -73.31858063 -11.86080742 2 0 0 
143 3 1 -1.00000000 129.10000610 316.68326569 -73.18141937 -8.12531471 2 0 0 
144 3 2 1.00000000 128.19999695 313.96784210 -71.90007782 -6.43690300 2 0 0 
145 3 2 1.00000000 128.19999695 312.97128296 -72.13549042 -2.56163001 2 0 0 
146 3 2 1.00000000 128.19999695 314.16831207 -75.44583893 -1.41166937 2 0 0 
147 3 1 -1.00000000 129.10000610 317.23995209 -77.22802734 -3.44503593 2 0 0 
148 3 2 1.00000000 128.19999695 315.91226959 -80.13327026 -5.68613148 2 0 0 
149 3 1 -1.00000000 129.10000610 313.31454468 -82.55233002 -4.09398317 2 0 0 
150 3 2 1.00000000 128.19999695 312.45613861 -85.95452881 -3.09872770 2 0 0 
151 4 2 1.00000000 128.19999695 -313.58912659 288.00444031 14.74332333 -2 1 0 
152 4 1 -1.00000000 129.10000610 -316.60832214 289.47863007 16.41458893 -2 1 0 
153 4 2 1.00000000 128.19999695 -319.04634094 289.89223480 19.43129158 -2 1 0 
154 4 2 1.00000000 128.19999695 -320.09743500 291.28846741 22.84037971 -2 1 0 
155 4 2 1.00000000 128.19999695 -319.20783997 288.63862610 25.58809662 -2 1 0 
156 4 1 -1.00000000 129.10000610 -318.57022858 288.86668396 29.52503014 -2 1 0 
157 4 2 1.00000000 128.19999695 -319.88818359 289.06768036 33.08246994 -2 1 0 
158 4 1 -1.00000000 129.10000610 -321.63239288 291.59247589 35.32658768 -2 1 0 
159 4 1 -1.00000000 129.10000610 -324.09439850 291.98310852 37.86254883 -2 1 0 
160 4 1 -1.00000000 129.10000610 -323.50748444 290.76194000 41.41147614 -2 1 0 
161 4 2 1.00000000 128.19999695 -321.30916595 289.98580933 44.49526596 -2 1 0 
162 4 1 -1.00000000 129.10000610 -317.90259552 289.24779510 42.81958771 -2 1 0 
163 4 1 -1.00000000 129.10000610 -316.95874786 287.31412506 39.54323196 -2 1 0 
164 4 1 -1.00000000 129.10000610 -314.52765656 284.61578369 41.12910843 -2 1 0 
165 4 2 1.00000000 128.19999695 -310.53234863 285.72444153 40.40260315 -1 1 0 
166 4 2 1.00000000 128.19999695 -309.37245178 289.48777771 41.45360947 -1 1 0 
167 4 1 -1.00000000 129.10000610 -310.01009369 291.17816925 38.30258560 -1 1 0 
168 4 1 -1.00000000 129.10000610 -307.74343872 290.67942810 35.37707138 -1 1 0 
169 4 2 1.00000000 128.19999695 -304.22010040 289.36661530 35.50744247 -1 1 0 
170 4 1 -1.00000000 129.10000610 -300.47628021 289.41320801 34.03069687 -1 1 0 
171 4 1 -1.00000000 129.10000610 -297.03796387 289.79314423 32.21591568 -1 1 0 
172 4 1 -1.00000000 129.10000610 -296.66843414 286.89243317 29.67609787 -1 1 0 
173 4 2 1.00000000 128.19999695 -296.78416443 288.79105377 26.09574890 -1 1 0 
174 4 1 -1.00000000 129.10000610 -296.84384918 289.74354553 22.52846527 -1 1 0 
175 4 1 -1.00000000 129.10000610 -299.17169952 292.77835083 21.40654945 -1 1 0 
176 4 2 1.00000000 128.19999695 -299.79093170 294.54911041 24.74896622 -1 1 0 
177 4 2 1.00000000 128.19999695 -302.51872253 295.17575073 27.27857780 -1 1 0 
178 4 2 1.00000000 128.19999695 -304.35346985 297.60084534 30.27100182 -1 1 0 
179 4 2 1.00000000 128.19999695 -301.75611115 297.17599487 33.41938019 -1 1 0 
180 4 2 1.00000000 128.19999695 -300.31918335 300.04189301 34.49553299 -1 1 0 
181 4 1 -1.00000000 129.10000610 -301.88283539 303.34842682 33.59220886 -1 1 0 
182 4 1 -1.00000000 129.10000610 -305.31700897 303.63906860 35.13813400 -1 1 0 
183 4 1 -1.00000000 129.10000610 -307.53795624 300.39666748 35.08412552 -1 1 0 
184 4 2 1.00000000 128.19999695 -310.20352173 299.77056122 37.67816544 -1 1 0 
185 4 2 1.00000000 128.19999695 -313.62364960 301.59075928 38.73296356 -2 1 0 
186 4 2 1.00000000 128.19999695 -316.93944550 301.86746216 36.60836029 -2 1 0 
187 4 1 -1.00000000 129.10000610 -316.87445068 300.08441162 33.24666214 -2 1 0 
188 4 2 1.00000000 128.19999695 -316.97025299 297.23442841 30.75135803 -2 1 0 
189 4 1 -1.00000000 129.10000610 -320.10591125 296.41033173 28.60408401 -2 1 0 
190 4 1 -1.00000000 129.10000610 -322.69099426 296.69552612 25.64500237 -2 1 0 
191 4 1 -1.00000000 129.10000610 -325.31649780 294.08468628 24.21243286 -2 1 0 
192 4 2 1.00000000 128.19999695 -329.08181000 293.11577606 23.96100235 -2 1 0 
193 4 1 -1.00000000 129.10000610 -330.66602325 296.44859314 25.38680649 -2 1 0 
194 4 2 1.00000000 128.19999695 -330.29954529 297.60186768 29.24893379 -2 1 0 
195 4 2 1.00000000 128.19999695 -327.16801453 296.39936829 31.27808952 -2 1 0 
196 4 2 1.00000000 128.19999695 -327.79342651 297.95159149 34.75302887 -2 1 0 
197 4 1 -1.00000000 129.10000610 -326.69284821 299.60583496 38.17785645 -2 1 0 
198 4 2 1.00000000 128.19999695 -325.27150726 298.05375671 41.54854202 -2 1 0 
199 4 1 -1.00000000 129.10000610 -324.22136688 299.20807648 44.90784073 -2 1 0 
200 4 2 1.00000000 128.19999695 -326.97824097 301.13373566 46.66602707 -2 1 0 
201 5 2 1.00000000 128.19999695 -336.30220795 -168.64642715 -147.90185165 -2 -1 -1 
202 5 1 -1.00000000 129.10000610 -338.36948395 -166.29502487 -145.92671204 -2 -1 -1 
203 5 2 1.00000000 128.19999695 -340.25152588 -168.59406662 -143.35087585 -2 -1 -1 
204 5 2 1.00000000 128.19999695 -338.77547455 -172.17600632 -141.30175018 -2 -1 -1 
205 5 2 1.00000000 128.19999695 -338.37477875 -174.92747116 -143.78163528 -2 -1 -1 
206 5 1 -1.00000000 129.10000610 -339.75604248 -174.65418243 -147.71674728 -2 -1 -1 
207 5 2 1.00000000 128.19999695 -339.42350769 -172.77032471 -151.05766296 -2 -1 -1 
208 5 1 -1.00000000 129.10000610 -338.78608704 -172.00033951 -154.68501282 -2 -1 -1 
209 5 1 -1.00000000 129.10000610 -335.51497650 -170.38949966 -155.02124786 -2 -1 -1 
210 5 1 -1.00000000 129.10000610 -332.23555756 -168.21581268 -155.21931458 -2 -1 -1 
211 5 2 1.00000000 128.19999695 -332.46431732 -164.27779388 -155.09791946 -2 -1 -1 
212 5 1 -1.00000000 129.10000610 -336.05302429 -163.13474274 -155.49052429 -2 -1 -1 
213 5 1 -1.00000000 129.10000610 -338.35169983 -164.30174637 -158.20026779 -2 -1 -1 
214 5 1 -1.00000000 129.10000610 -339.31737518 -162.77526093 -161.16917801 -2 -1 -1 
215 5 2 1.00000000 128.19999695 -336.41172028 -161.55167007 -163.65145493 -2 -1 -1 
216 5 2 1.00000000 128.19999695 -337.25922394 -160.71890259 -167.29795074 -2 -1 -1 
217 5 1 -1.00000000 129.10000610 -335.45644379 -163.16920090 -169.35622025 -2 -1 -1 
218 5 1 -1.00000000 129.10000610 -335.14437866 -166.75345612 -171.13847351 -2 -1 -1 
219 5 2 1.00000000 128.19999695 -338.34666443 -167.14707184 -173.60253525 -2 -1 -1 
220 5 1 -1.00000000 129.10000610 -337.91586304 -168.59343719 -176.97833824 -2 -1 -1 
221 5 1 -1.00000000 129.10000610 -334.56257629 -169.78099060 -178.50042152 -2 -1 -1 
222 5 1 -1.00000000 129.10000610 -333.49445343 -170.71267700 -182.24381828 -2 -1 -1 
223 5 2 1.00000000 128.19999695 -332.47074127 -173.99822617 -183.93792343 -2 -1 -1 
224 5 1 -1.00000000 129.10000610 -331.54408264 -176.37372589 -187.08790970 -2 -1 -1 
225 5 1 -1.00000000 129.10000610 -328.53868866 -178.48530960 -187.24491310 -2 -1 -1 
226 5 2 1.00000000 128.19999695 -329.99369049 -182.03578949 -188.30795670 -2 -1 -1 
227 5 2 1.00000000 128.19999695 -331.68606567 -182.25853539 -191.80003452 -2 -1 -1 
228 5 2 1.00000000 128.19999695 -334.87804413 -184.43130875 -192.75017929 -2 -1 -1 
229 5 2 1.00000000 128.19999695 -334.64215851 -188.14118004 -193.38782787 -2 -1 -1 
230 5 2 1.00000000 128.19999695 -336.07781982 -191.55502796 -194.70083714 -2 -1 -1 
231 5 1 -1.00000000 129.10000610 -334.14460754 -195.00383663 -194.63152313 -2 -1 -1 
232 5 1 -1.00000000 129.10000610 -334.02198792 -197.64129543 -197.15927315 -2 -1 -1 
233 5 1 -1.00000000 129.10000610 -332.58576965 -197.25923443 -200.96578646 -2 -1 -1 
234 5 2 1.00000000 128.19999695 -329.57818604 -198.93424988 -202.57994032 -2 -1 -1 
235 5 2 1.00000000 128.19999695 -326.44900513 -199.67062330 -200.32879019 -2 -1 -1 
236 5 2 1.00000000 128.19999695 -323.12337494 -197.75361156 -200.76312637 -2 -1 -1 
237 5 1 -1.00000000 129.10000610 -321.59712982 -195.55253410 -203.16142893 -2 -1 -1 
238 5 2 1.00000000 128.19999695 -321.42794037 -193.33942223 -206.61833107 -2 -1 -1 
239 5 1 -1.00000000 129.10000610 -322.89810181 -195.27425003 -209.23864329 -2 -1 -1 
240 5 1 -1.00000000 129.10000610 -324.01068115 -195.67372513 -212.99123907 -2 -1 -1 
241 5 1 -1.00000000 129.10000610 -327.15773773 -193.66841507 -212.70769596 -2 -1 -1 
242 5 2 1.00000000 128.19999695 -330.52246857 -195.61391258 -212.11781788 -2 -1 -1 
243 5 1 -1.00000000 129.10000610 -331.39990234 -198.67537594 -209.63955283 -2 -1 -1 
244 5 2 1.00000000 128.19999695 -334.32953644 -199.23589516 -207.42783555 -2 -1 -1 
245 5 2 1.00000000 128.19999695 -335.70254517 -195.57248020 -206.68132669 -2 -1 -1 
246 5 2 1.00000000 128.19999695 -335.46166229 -192.63541317 -208.93412352 -2 -1 -1 
247 5 1 -1.00000000 129.10000610 -337.75556183 -189.44439125 -207.56383108 -2 -1 -1 
248 5 2 1.00000000 128.19999695 -337.20060730 -187.15332222 -204.81266737 -2 -1 -1 
249 5 1 -1.00000000 129.10000610 -335.39520264 -188.72502327 -202.00874949 -2 -1 -1 
250 5 2 1.00000000 128.19999695 -331.68157959 -189.97594833 -202.43365383 -2 -1 -1 
251 6 2 1.00000000 128.19999695 401.33275509 -410.95635748 -41.49834824 2 -2 0 
252 6 1 -1.00000000 129.10000610 402.94289684 -407.61705589 -42.20861816 2 -2 0 
253 6 2 1.00000000 128.19999695 405.93819523 -405.92137909 -43.18997192 2 -2 0 
254 6 2 1.00000000 128.19999695 408.87507105 -405.58714390 -41.40383911 2 -2 0 
255 6 2 1.00000000 128.19999695 411.64279485 -408.41568661 -40.71782303 2 -2 0 
256 6 1 -1.00000000 129.10000610 413.41278529 -411.51639795 -39.79137802 2 -2 0 
257 6 2 1.00000000 128.19999695 414.13402641 -415.19663015 -40.72690964 2 -2 0 
258 6 1 -1.00000000 129.10000610 411.17330766 -417.60422301 -41.42281342 2 -2 0 
259 6 1 -1.00000000 129.10000610 407.52812243 -416.40770316 -41.22290802 2 -2 0 
260 6 1 -1.00000000 129.10000610 405.42488289 -415.31533027 -44.22359467 2 -2 0 
261 6 2 1.00000000 128.19999695 405.07789326 -414.66932577 -47.95682144 2 -2 0 
262 6 1 -1.00000000 129.10000610 402.42986012 -415.22119725 -50.74006271 2 -2 0 
263 6 1 -1.00000000 129.10000610 400.57881546 -412.96909094 -53.24593735 2 -2 0 
264 6 1 -1.00000000 129.10000610 398.94190407 -414.02131021 -56.59371185 2 -2 0 
265 6 2 1.00000000 128.19999695 397.82360077 -417.89478159 -56.28218079 2 -2 0 
266 6 2 1.00000000 128.19999695 397.54359436 -420.04340506 -59.33375549 2 -2 0 
267 6 1 -1.00000000 129.10000610 395.70921135 -419.19149542 -62.71467972 2 -2 0 
268 6 1 -1.00000000 129.10000610 392.06954765 -418.89661932 -62.34278488 2 -2 0 
269 6 2 1.00000000 128.19999695 390.67811394 -415.69033986 -61.10516357 2 -2 0 
270 6 1 -1.00000000 129.10000610 388.20139122 -412.72802830 -61.45415115 2 -2 0 
271 6 1 -1.00000000 129.10000610 386.63279343 -409.30957794 -62.17623901 2 -2 0 
272 6 1 -1.00000000 129.10000610 382.95307350 -409.15459728 -61.10222244 2 -2 0 
273 6 2 1.00000000 128.19999695 381.81503677 -408.90072250 -57.49858475 2 -2 0 
274 6 1 -1.00000000 129.10000610 380.83760834 -411.83678651 -55.00494385 2 -2 0 
275 6 1 -1.00000000 129.10000610 377.38341522 -411.41688871 -53.44413376 2 -2 0 
276 6 2 1.00000000 128.19999695 374.84083939 -413.17528737 -51.82339096 2 -2 0 
277 6 2 1.00000000 128.19999695 374.03685379 -411.64071131 -48.30298233 2 -2 0 
278 6 2 1.00000000 128.19999695 376.77636719 -409.20488548 -46.68520737 2 -2 0 
279 6 2 1.00000000 128.19999695 378.81920242 -409.04869127 -43.23849106 2 -2 0 
280 6 2 1.00000000 128.19999695 380.07429123 -405.86503696 -42.58275986 2 -2 0 
281 6 1 -1.00000000 129.10000610 380.47043228 -403.14079189 -45.08934784 2 -2 0 
282 6 1 -1.00000000 129.10000610 381.97215271 -400.18153858 -43.19934082 2 -2 0 
283 6 1 -1.00000000 129.10000610 384.42016602 -397.00352478 -42.21269989 2 -2 0 
284 6 2 1.00000000 128.19999695 384.95997620 -394.93396568 -39.39427567 2 -2 0 
285 6 2 1.00000000 128.19999695 382.76510239 -395.38590622 -36.25349045 2 -2 0 
286 6 2 1.00000000 128.19999695 381.11896515 -394.12536621 -32.84544373 2 -2 0 
287 6 1 -1.00000000 129.10000610 377.10854721 -393.79272842 -33.26532364 2 -2 0 
288 6 2 1.00000000 128.19999695 374.17502594 -395.45683289 -31.71056366 2 -2 0 
289 6 1 -1.00000000 129.10000610 374.16364670 -399.11236382 -32.24268341 2 -2 0 
290 6 1 -1.00000000 129.10000610 370.27578354 -400.14609051 -32.80821228 2 -2 0 
291 6 1 -1.00000000 129.10000610 366.63832855 -401.22753239 -31.66534424 2 -2 0 
292 6 2 1.00000000 128.19999695 364.90518951 -400.36910915 -28.54882240 2 -2 0 
293 6 1 -1.00000000 129.10000610 364.86654663 -397.76109123 -25.86243248 2 -2 0 
294 6 2 1.00000000 128.19999695 363.90061951 -395.94500923 -22.71592140 2 -2 0 
295 6 2 1.00000000 128.19999695 362.23520660 -397.82560921 -20.09713936 2 -2 0 
296 6 2 1.00000000 128.19999695 362.02291489 -399.54710674 -16.52768326 2 -2 0 
297 6 1 -1.00000000 129.10000610 361.61890793 -402.64568901 -14.17706680 2 -2 0 
298 6 2 1.00000000 128.19999695 364.70085907 -404.33467007 -12.68748951 2 -2 0 
299 6 1 -1.00000000 129.10000610 366.24658203 -404.77330017 -9.22256851 2 -2 0 
300 6 2 1.00000000 128.19999695 368.91783905 -403.26732254 -7.19897795 2 -2 0 
301 7 2 1.00000000 128.19999695 -123.17341614 -25.76236153 -948.33703613 -1 0 -5 
302 7 1 -1.00000000 129.10000610 -119.92224121 -27.68779564 -948.19029999 -1 0 -5 
303 7 2 1.00000000 128.19999695 -116.97698975 -27.20856667 -945.32404327 -1 0 -5 
304 7 2 1.00000000 128.19999695 -113.96010590 -29.17758942 -946.69705200 -1 0 -5 
305 7 2 1.00000000 128.19999695 -112.56770325 -26.77247238 -950.00865173 -1 0 -5 
306 7 1 -1.00000000 129.10000610 -112.82112885 -23.35921478 -948.39506531 -1 0 -5 
307 7 2 1.00000000 128.19999695 -114.20267487 -21.25823212 -945.35897064 -1 0 -5 
308 7 1 -1.00000000 129.10000610 -114.20929718 -22.88944244 -942.16487122 -1 0 -5 
309 7 1 -1.00000000 129.10000610 -116.68202209 -24.47364998 -939.89611053 -1 0 -5 
310 7 1 -1.00000000 129.10000610 -120.40111542 -24.50347328 -940.82744598 -1 0 -5 
311 7 2 1.00000000 128.19999695 -122.61018372 -25.37542534 -937.34062195 -1 0 -5 
312 7 1 -1.00000000 129.10000610 -125.43650818 -23.73003006 -935.50971985 -1 0 -5 
313 7 1 -1.00000000 129.10000610 -128.28902435 -21.50905418 -934.82083130 -1 0 -5 
314 7 1 -1.00000000 129.10000610 -128.32268524 -17.94350815 -935.86576843 -1 0 -5 
315 7 2 1.00000000 128.19999695 -128.55962372 -14.68795967 -933.39018250 -1 0 -5 
316 7 2 1.00000000 128.19999695 -125.40932465 -15.31570435 -931.00865936 -1 0 -4 
317 7 1 -1.00000000 129.10000610 -124.61829376 -18.22204781 -928.59864807 -1 0 -4 
318 7 1 -1.00000000 129.10000610 -123.37083435 -21.49778938 -930.31836700 -1 0 -4 
319 7 2 1.00000000 128.19999695 -123.61982727 -24.83086586 -929.15490723 -1 0 -4 
320 7 1 -1.00000000 129.10000610 -120.58978271 -25.03518295 -926.49700165 -1 0 -4 
321 7 1 -1.00000000 129.10000610 -121.02146149 -26.93763542 -923.31314850 -1 0 -4 
322 7 1 -1.00000000 129.10000610 -122.92230988 -30.35019875 -923.82046509 -1 0 -4 
323 7 2 1.00000000 128.19999695 -123.61373138 -33.79673386 -922.24687195 -1 0 -4 
324 7 1 -1.00000000 129.10000610 -122.75553894 -37.59370041 -923.25733185 -1 0 -4 
325 7 1 -1.00000000 129.10000610 -119.18350983 -38.06468582 -924.23657227 -1 0 -4 
326 7 2 1.00000000 128.19999695 -117.08428192 -34.88867569 -924.57286835 -1 0 -4 
327 7 2 1.00000000 128.19999695 -115.69938660 -31.69215584 -925.52440643 -1 0 -4 
328 7 2 1.00000000 128.19999695 -113.31251526 -28.59824944 -924.62145233 -1 0 -4 
329 7 2 1.00000000 128.19999695 -112.84030914 -25.60107613 -922.69833374 -1 0 -4 
330 7 2 1.00000000 128.19999695 -112.34204102 -22.24374962 -923.83821869 -1 0 -4 
331 7 1 -1.00000000 129.10000610 -110.84919739 -21.02758980 -927.48484802 -1 0 -4 
332 7 1 -1.00000000 129.10000610 -108.23818207 -21.87425232 -930.45001984 -1 0 -4 
333 7 1 -1.00000000 129.10000610 -110.24922943 -20.87934685 -933.25311279 -1 0 -5 
334 7 2 1.00000000 128.19999695 -112.94159698 -18.47874641 -933.47505188 -1 0 -5 
335 7 2 1.00000000 128.19999695 -116.68559265 -17.55025864 -932.47525024 -1 0 -4 
336 7 2 1.00000000 128.19999695 -117.12054443 -15.45858669 -929.61708069 -1 0 -4 
337 7 1 -1.00000000 129.10000610 -119.81040955 -14.07838154 -927.00434113 -1 0 -4 
338 7 2 1.00000000 128.19999695 -122.58827972 -12.06293678 -926.42774200 -1 0 -4 
339 7 1 -1.00000000 129.10000610 -123.95032501 -14.02857018 -923.41475677 -1 0 -4 
340 7 1 -1.00000000 129.10000610 -127.91290283 -13.22762680 -924.28519440 -1 0 -4 
341 7 1 -1.00000000 129.10000610 -131.62221527 -12.50276375 -925.54971313 -1 0 -4 
342 7 2 1.00000000 128.19999695 -133.25321198 -15.43253040 -927.07910919 -1 0 -4 
343 7 1 -1.00000000 129.10000610 -133.20661926 -18.51202393 -929.68164825 -1 0 -4 
344 7 2 1.00000000 128.19999695 -136.23316956 -17.78592491 -932.29319763 -1 0 -4 
345 7 2 1.00000000 128.19999695 -139.22273254 -15.76400757 -934.53356171 -1 0 -5 
346 7 2 1.00000000 128.19999695 -141.63625336 -12.49686241 -934.76374817 -1 0 -5 
347 7 1 -1.00000000 129.10000610 -145.57116699 -12.72927952 -934.34179688 -1 0 -5 
348 7 2 1.00000000 128.19999695 -148.74548721 -13.76772213 -932.74306488 -1 0 -4 
349 7 1 -1.00000000 129.10000610 -151.67294312 -14.82168865 -930.27906799 -1 0 -4 
350 7 2 1.00000000 128.19999695 -153.91253662 -15.39087009 -927.49851990 -1 0 -4 
351 8 2 1.00000000 128.19999695 83.40985870 -124.66645813 610.28828335 0 -1 3 
352 8 1 -1.00000000 129.10000610 80.29283142 -126.48413086 611.90865898 0 -1 3 
353 8 2 1.00000000 128.19999695 77.00444794 -124.33509827 612.17911243 0 -1 3 
354 8 2 1.00000000 128.19999695 77.35663605 -121.11769104 613.93439770 0 -1 3 
355 8 2 1.00000000 128.19999695 76.63496399 -117.76467896 615.81833267 0 -1 3 
356 8 1 -1.00000000 129.10000610 75.48481750 -114.20537567 616.30429983 0 -1 3 
357 8 2 1.00000000 128.19999695 72.08590698 -113.41130066 614.90518427 0 -1 3 
358 8 1 -1.00000000 129.10000610 68.43230438 -112.53239441 616.07635450 0 -1 3 
359 8 1 -1.00000000 129.10000610 66.35591888 -109.69824982 617.51662159 0 -1 3 
360 8 1 -1.00000000 129.10000610 64.84110260 -106.34936523 616.52289724 0 -1 3 
361 8 2 1.00000000 128.19999695 67.36619568 -104.03454590 614.68369102 0 -1 3 
362 8 1 -1.00000000 129.10000610 69.36268616 -106.55011749 613.27450943 0 -1 3 
363 8 1 -1.00000000 129.10000610 73.44496155 -106.27430725 612.99982071 0 -1 3 
364 8 1 -1.00000000 129.10000610 76.48665619 -106.86798859 610.45104980 0 -1 3 
365 8 2 1.00000000 128.19999695 75.12293243 -108.94591522 607.50229073 0 -1 3 
366 8 2 1.00000000 128.19999695 73.76313782 -106.25278473 605.28648567 0 -1 3 
367 8 1 -1.00000000 129.10000610 75.88761139 -103.59268951 603.70842934 0 0 3 
368 8 1 -1.00000000 129.10000610 75.53993225 -99.70581055 603.78693771 0 0 3 
369 8 2 1.00000000 128.19999695 75.22410583 -98.48057556 607.28074741 0 0 3 
370 8 1 -1.00000000 129.10000610 73.19542694 -95.41812897 607.80998421 0 0 3 
371 8 1 -1.00000000 129.10000610 72.92539215 -92.33402252 609.41760731 0 0 3 