ITEM: TIMESTEP
43750000 
ITEM: NUMBER OF ATOMS 
25000 
ITEM: BOX BOUNDS pp pp pp 
-103.678017 103.678017 
-103.678017 103.678017 
-103.678017 103.678017 
ITEM: ATOMS id mol type q mass xu yu zu ix iy iz 
1 1 2 1.00000000 128.19999695 536.83142853 -205.79804015 -305.84192657 3 -1 -1 
2 1 1 -1.00000000 129.10000610 537.12137604 -209.06812525 -307.15320587 3 -1 -1 
3 1 2 1.00000000 128.19999695 534.41597748 -212.06567049 -307.16683960 3 -1 -1 
4 1 2 1.00000000 128.19999695 532.12028503 -210.70700836 -309.66773224 3 -1 -1 
5 1 2 1.00000000 128.19999695 529.68440247 -210.41704273 -312.34582520 3 -1 -2 
6 1 1 -1.00000000 129.10000610 525.98292542 -209.66926694 -312.32948303 3 -1 -2 
7 1 2 1.00000000 128.19999695 523.68695068 -209.13419580 -315.61360931 3 -1 -2 
8 1 1 -1.00000000 129.10000610 520.80557251 -210.57166457 -317.52886200 3 -1 -2 
9 1 1 -1.00000000 129.10000610 517.22235107 -208.93838429 -318.26290894 2 -1 -2 
10 1 1 -1.00000000 129.10000610 515.57314301 -206.84434855 -315.58511353 2 -1 -2 
11 1 2 1.00000000 128.19999695 517.26153564 -205.04233408 -313.13265991 2 -1 -2 
12 1 1 -1.00000000 129.10000610 520.50371552 -204.36554599 -311.38193512 3 -1 -2 
13 1 1 -1.00000000 129.10000610 522.45631409 -201.07232952 -311.73381805 3 -1 -2 
14 1 1 -1.00000000 129.10000610 521.10711670 -198.20227909 -309.70097351 3 -1 -1 
15 1 2 1.00000000 128.19999695 517.24156952 -197.88027763 -310.01391602 2 -1 -1 
16 1 2 1.00000000 128.19999695 514.15869141 -197.15323639 -307.50534821 2 -1 -1 
17 1 1 -1.00000000 129.10000610 513.35316467 -196.24601173 -303.81478119 2 -1 -1 
18 1 1 -1.00000000 129.10000610 512.30342865 -198.16847229 -300.97215271 2 -1 -1 
19 1 2 1.00000000 128.19999695 510.26278687 -196.39546013 -298.12901306 2 -1 -1 
20 1 1 -1.00000000 129.10000610 509.66049194 -195.08431339 -294.77851868 2 -1 -1 
21 1 1 -1.00000000 129.10000610 506.24665070 -193.89560699 -293.73495483 2 -1 -1 
22 1 1 -1.00000000 129.10000610 504.88507843 -190.87758064 -292.07065582 2 -1 -1 
23 1 2 1.00000000 128.19999695 502.01868439 -189.01405907 -290.54125214 2 -1 -1 
24 1 1 -1.00000000 129.10000610 500.56927490 -187.40307617 -294.01660919 2 -1 -1 
25 1 1 -1.00000000 129.10000610 500.94474030 -185.41691017 -297.62098694 2 -1 -1 
26 1 2 1.00000000 128.19999695 498.47463989 -183.41304970 -299.64554596 2 -1 -1 
27 1 2 1.00000000 128.19999695 498.54909515 -179.46002579 -299.20053864 2 -1 -1 
28 1 2 1.00000000 128.19999695 497.95398712 -176.13243675 -300.61875153 2 -1 -1 
29 1 2 1.00000000 128.19999695 498.62892914 -174.46056366 -304.09345245 2 -1 -1 
30 1 2 1.00000000 128.19999695 498.44561005 -171.03495407 -305.11177063 2 -1 -1 
31 1 1 -1.00000000 129.10000610 496.20748901 -168.34846497 -303.15617371 2 -1 -1 
32 1 1 -1.00000000 129.10000610 495.83273315 -165.39281464 -305.43243408 2 -1 -1 
33 1 1 -1.00000000 129.10000610 495.68846893 -164.79519272 -309.02670288 2 -1 -1 
34 1 2 1.00000000 128.19999695 499.64811707 -165.09894180 -309.68057251 2 -1 -1 
35 1 2 1.00000000 128.19999695 503.04827881 -162.92413330 -310.87397003 2 -1 -1 
36 1 2 1.00000000 128.19999695 505.70220947 -164.23332596 -308.34117889 2 -1 -1 
37 1 1 -1.00000000 129.10000610 508.85752106 -166.62269592 -308.94241333 2 -1 -1 
38 1 2 1.00000000 128.19999695 512.73281097 -167.74455643 -309.19670868 2 -1 -1 
39 1 1 -1.00000000 129.10000610 515.71477509 -165.43667603 -309.26002502 2 -1 -1 
40 1 1 -1.00000000 129.10000610 515.10340118 -162.93720245 -305.97597504 2 -1 -1 
41 1 1 -1.00000000 129.10000610 511.60231781 -161.64343643 -306.53707886 2 -1 -1 
42 1 2 1.00000000 128.19999695 508.83457947 -158.79915619 -306.74757385 2 -1 -1 
43 1 1 -1.00000000 129.10000610 510.20671082 -155.09820557 -306.84484100 2 -1 -1 
44 1 2 1.00000000 128.19999695 512.58925629 -155.17812729 -309.97590637 2 -1 -1 
45 1 2 1.00000000 128.19999695 515.40431976 -157.73616791 -310.00987244 2 -1 -1 
46 1 2 1.00000000 128.19999695 518.53134918 -156.67327881 -308.00160980 3 -1 -1 
47 1 1 -1.00000000 129.10000610 521.53886414 -158.99704742 -307.51969147 3 -1 -1 
48 1 2 1.00000000 128.19999695 525.26123047 -158.13921738 -307.83086395 3 -1 -1 
49 1 1 -1.00000000 129.10000610 525.67855835 -157.57467270 -311.67208099 3 -1 -2 
50 1 2 1.00000000 128.19999695 529.12546539 -157.17881775 -313.56781006 3 -1 -2 
51 2 2 1.00000000 128.19999695 528.64427185 347.53744507 -286.56233215 3 2 -1 
52 2 1 -1.00000000 129.10000610 530.88950348 349.53214264 -284.02217102 3 2 -1 
53 2 2 1.00000000 128.19999695 533.19264221 352.64078140 -283.42849731 3 2 -1 
54 2 2 1.00000000 128.19999695 535.65831757 353.04854965 -285.95197296 3 2 -1 
55 2 2 1.00000000 128.19999695 539.21592712 351.65566254 -286.51195526 3 2 -1 
56 2 1 -1.00000000 129.10000610 541.95824432 354.33318710 -287.93462372 3 2 -1 
57 2 2 1.00000000 128.19999695 541.87963867 355.92800522 -291.34638977 3 2 -1 
58 2 1 -1.00000000 129.10000610 541.81227875 353.60995483 -294.62112427 3 2 -1 
59 2 1 -1.00000000 129.10000610 542.98325348 355.14950562 -297.72088623 3 2 -1 
60 2 1 -1.00000000 129.10000610 544.35196686 357.66919708 -300.45781708 3 2 -1 
61 2 2 1.00000000 128.19999695 545.16539001 361.12772369 -301.83946991 3 2 -1 
62 2 1 -1.00000000 129.10000610 545.86019897 361.44650269 -305.57717133 3 2 -1 
63 2 1 -1.00000000 129.10000610 548.43612671 364.18276596 -307.53849030 3 2 -1 
64 2 1 -1.00000000 129.10000610 546.96163940 366.48198700 -310.07231140 3 2 -1 
65 2 2 1.00000000 128.19999695 543.32251740 367.03833771 -311.16615295 3 2 -2 
66 2 2 1.00000000 128.19999695 543.08316803 370.51376724 -309.76111603 3 2 -1 
67 2 1 -1.00000000 129.10000610 540.41747284 372.48408508 -307.99148560 3 2 -1 
68 2 1 -1.00000000 129.10000610 541.16168213 376.45247650 -307.51664734 3 2 -1 
69 2 2 1.00000000 128.19999695 540.23480988 379.77468491 -305.61746979 3 2 -1 
70 2 1 -1.00000000 129.10000610 539.60571289 383.41904259 -306.18991852 3 2 -1 
71 2 1 -1.00000000 129.10000610 537.20019531 386.09221840 -305.07901001 3 2 -1 
72 2 1 -1.00000000 129.10000610 534.23812866 384.99424553 -302.86611938 3 2 -1 
73 2 2 1.00000000 128.19999695 532.47237396 381.75953293 -304.27108765 3 2 -1 
74 2 1 -1.00000000 129.10000610 528.82141876 381.21677017 -305.23109436 3 2 -1 
75 2 1 -1.00000000 129.10000610 527.21814728 383.08993530 -308.28269958 3 2 -1 
76 2 2 1.00000000 128.19999695 527.90613556 386.45223045 -307.94270325 3 2 -1 
77 2 2 1.00000000 128.19999695 529.91798401 389.54951668 -307.15324402 3 2 -1 
78 2 2 1.00000000 128.19999695 533.36864471 390.71850586 -308.60861206 3 2 -1 
79 2 2 1.00000000 128.19999695 536.24533844 388.94584656 -310.79775238 3 2 -1 
80 2 2 1.00000000 128.19999695 538.95124054 387.92089081 -313.78058624 3 2 -2 
81 2 1 -1.00000000 129.10000610 541.13101959 388.49523926 -316.72109222 3 2 -2 
82 2 1 -1.00000000 129.10000610 542.50837708 391.97889519 -315.63969421 3 2 -2 
83 2 1 -1.00000000 129.10000610 541.68037415 395.00186920 -317.79928589 3 2 -2 
84 2 2 1.00000000 128.19999695 543.83816528 397.05743408 -319.55720520 3 2 -2 
85 2 2 1.00000000 128.19999695 544.69056702 400.80908775 -318.71685791 3 2 -2 
86 2 2 1.00000000 128.19999695 546.75744629 401.31234264 -315.20790863 3 2 -2 
87 2 1 -1.00000000 129.10000610 548.18407440 404.60674381 -315.70791626 3 2 -2 
88 2 2 1.00000000 128.19999695 549.07688904 408.07825613 -315.69356537 3 2 -2 
89 2 1 -1.00000000 129.10000610 551.97975922 409.75304127 -317.94557953 3 2 -2 
90 2 1 -1.00000000 129.10000610 555.01532745 407.39980221 -317.76902008 3 2 -2 
91 2 1 -1.00000000 129.10000610 554.26348114 404.03862572 -316.05425262 3 2 -2 
92 2 2 1.00000000 128.19999695 556.74438477 401.65343761 -314.43457794 3 2 -2 
93 2 1 -1.00000000 129.10000610 560.56031799 402.94168758 -314.13142395 3 2 -2 
94 2 2 1.00000000 128.19999695 562.84769058 400.09302807 -312.93716431 3 2 -2 
95 2 2 1.00000000 128.19999695 561.50975418 397.45195007 -310.51654816 3 2 -1 
96 2 2 1.00000000 128.19999695 558.61213303 394.94497490 -311.65528107 3 2 -2 
97 2 1 -1.00000000 129.10000610 555.52000427 392.60413933 -311.43219757 3 2 -2 
98 2 2 1.00000000 128.19999695 552.42126465 393.14189720 -313.50549316 3 2 -2 
99 2 1 -1.00000000 129.10000610 551.38233948 390.81397057 -316.20288849 3 2 -2 
100 2 2 1.00000000 128.19999695 550.19200897 387.70691490 -317.54574585 3 2 -2 
101 3 2 1.00000000 128.19999695 339.16197205 -113.70989990 25.89882088 2 -1 0 
102 3 1 -1.00000000 129.10000610 339.91257477 -110.08576965 26.50057793 2 -1 0 
103 3 2 1.00000000 128.19999695 340.26192474 -106.53577423 27.21864128 2 -1 0 
104 3 2 1.00000000 128.19999695 343.10643005 -104.03771973 27.85348129 2 -1 0 
105 3 2 1.00000000 128.19999695 343.18965149 -101.53666687 30.77474594 2 0 0 
106 3 1 -1.00000000 129.10000610 340.19715881 -102.86465454 33.19490433 2 0 0 
107 3 2 1.00000000 128.19999695 338.25513458 -105.85121918 33.80941391 2 -1 0 
108 3 1 -1.00000000 129.10000610 339.92020416 -109.29336548 33.46036911 2 -1 0 
109 3 1 -1.00000000 129.10000610 343.83661652 -109.98449707 33.99670792 2 -1 0 
110 3 1 -1.00000000 129.10000610 346.44804382 -108.46862793 36.18844986 2 -1 0 
111 3 2 1.00000000 128.19999695 348.26719666 -109.95744324 38.71222305 2 -1 0 
112 3 1 -1.00000000 129.10000610 348.33380890 -111.80472565 41.67699814 2 -1 0 
113 3 1 -1.00000000 129.10000610 349.32065582 -109.09596252 44.31982803 2 -1 0 
114 3 1 -1.00000000 129.10000610 347.07277679 -110.23892975 47.03860092 2 -1 0 
115 3 2 1.00000000 128.19999695 346.70719147 -114.14995575 48.18760681 2 -1 0 
116 3 2 1.00000000 128.19999695 344.31624603 -113.87908936 51.16969681 2 -1 0 
117 3 1 -1.00000000 129.10000610 342.07796478 -115.29992676 53.78454208 2 -1 0 
118 3 1 -1.00000000 129.10000610 341.41680908 -118.69281006 54.19105911 2 -1 0 
119 3 2 1.00000000 128.19999695 338.74083710 -120.76307678 52.98040009 2 -1 0 
120 3 1 -1.00000000 129.10000610 338.02201080 -123.66848755 54.92758560 2 -1 0 
121 3 1 -1.00000000 129.10000610 335.21286011 -125.26420593 57.07067108 2 -1 0 
122 3 1 -1.00000000 129.10000610 331.99739838 -124.73239136 58.98960876 2 -1 0 
123 3 2 1.00000000 128.19999695 330.90692139 -124.60179901 62.71231079 2 -1 0 
124 3 1 -1.00000000 129.10000610 333.05509949 -123.05799103 65.16847992 2 -1 0 
125 3 1 -1.00000000 129.10000610 334.48226166 -119.29794312 65.11157990 2 -1 0 
126 3 2 1.00000000 128.19999695 338.17817688 -119.71189880 64.11773682 2 -1 0 
127 3 2 1.00000000 128.19999695 341.11553955 -120.99027252 62.50470352 2 -1 0 
128 3 2 1.00000000 128.19999695 344.39305878 -119.09848785 61.58261871 2 -1 0 
129 3 2 1.00000000 128.19999695 347.56188965 -118.48950958 59.52746964 2 -1 0 
130 3 2 1.00000000 128.19999695 349.46331787 -120.11714935 56.81992340 2 -1 0 
131 3 1 -1.00000000 129.10000610 353.04467392 -119.36788940 57.46340942 2 -1 0 
132 3 1 -1.00000000 129.10000610 356.33149338 -121.47900391 58.53258514 2 -1 0 
133 3 1 -1.00000000 129.10000610 359.50342941 -122.77496338 59.75295258 2 -1 0 
134 3 2 1.00000000 128.19999695 359.59871674 -124.41659546 63.08688354 2 -1 0 
135 3 2 1.00000000 128.19999695 361.26704025 -123.40229797 66.59102631 2 -1 0 
136 3 2 1.00000000 128.19999695 361.30453491 -124.67853546 70.35859680 2 -1 0 
137 3 1 -1.00000000 129.10000610 363.84219742 -122.86981201 72.52541351 2 -1 0 
138 3 2 1.00000000 128.19999695 363.08153915 -121.68641663 76.26578522 2 -1 0 
139 3 1 -1.00000000 129.10000610 359.94043732 -122.94815826 78.18680573 2 -1 0 
140 3 1 -1.00000000 129.10000610 360.34084702 -122.91078949 81.62210083 2 -1 0 
141 3 1 -1.00000000 129.10000610 362.80974960 -124.22492218 83.58373260 2 -1 0 
142 3 2 1.00000000 128.19999695 364.65017319 -122.09179688 86.07970428 2 -1 0 
143 3 1 -1.00000000 129.10000610 364.32108688 -121.11687469 89.81616974 2 -1 0 
144 3 2 1.00000000 128.19999695 367.19553375 -119.33013153 91.76410675 2 -1 0 
145 3 2 1.00000000 128.19999695 368.87733078 -121.47505951 94.51256561 2 -1 0 
146 3 2 1.00000000 128.19999695 372.14434814 -122.24136353 96.25546265 2 -1 0 
147 3 1 -1.00000000 129.10000610 371.84918976 -123.07459259 100.18223572 2 -1 0 
148 3 2 1.00000000 128.19999695 373.55213928 -125.32514191 102.70521545 2 -1 0 
149 3 1 -1.00000000 129.10000610 372.27568817 -126.42636108 106.05170441 2 -1 1 
150 3 2 1.00000000 128.19999695 369.39146042 -126.46656799 108.52941895 2 -1 1 
151 4 2 1.00000000 128.19999695 -315.70382690 404.48943329 8.03807831 -2 2 0 
152 4 1 -1.00000000 129.10000610 -317.17300415 404.13908577 11.65502644 -2 2 0 
153 4 2 1.00000000 128.19999695 -318.64251709 400.79564095 11.49495792 -2 2 0 
154 4 2 1.00000000 128.19999695 -318.48496246 398.23740196 8.52625370 -2 2 0 
155 4 2 1.00000000 128.19999695 -320.32192993 396.82843208 6.13344145 -2 2 0 
156 4 1 -1.00000000 129.10000610 -321.34947968 393.52624512 4.49095678 -2 2 0 
157 4 2 1.00000000 128.19999695 -323.63150787 391.03553391 2.88666606 -2 2 0 
158 4 1 -1.00000000 129.10000610 -323.52787018 389.75336075 -0.56666785 -2 2 0 
159 4 1 -1.00000000 129.10000610 -320.47023773 391.38246346 -1.62346721 -2 2 0 
160 4 1 -1.00000000 129.10000610 -321.54657745 393.33617020 -4.64095116 -2 2 0 
161 4 2 1.00000000 128.19999695 -320.81506348 397.17518997 -5.47235060 -2 2 0 
162 4 1 -1.00000000 129.10000610 -321.61926270 398.39513397 -1.61785150 -2 2 0 
163 4 1 -1.00000000 129.10000610 -325.32621765 399.25357819 -1.94607890 -2 2 0 
164 4 1 -1.00000000 129.10000610 -327.29785156 400.95158100 0.96951658 -2 2 0 
165 4 2 1.00000000 128.19999695 -326.21156311 404.50630760 0.65431660 -2 2 0 
166 4 2 1.00000000 128.19999695 -325.46619415 405.90318108 4.20228910 -2 2 0 
167 4 1 -1.00000000 129.10000610 -325.40856934 409.88429689 3.45759249 -2 2 0 
168 4 1 -1.00000000 129.10000610 -328.36021423 412.16662621 2.98326659 -2 2 0 
169 4 2 1.00000000 128.19999695 -330.21254730 415.19837618 4.56959009 -2 2 0 
170 4 1 -1.00000000 129.10000610 -329.20895386 415.48908472 8.34685802 -2 2 0 
171 4 1 -1.00000000 129.10000610 -330.88751221 411.97671032 9.63996315 -2 2 0 
172 4 1 -1.00000000 129.10000610 -334.18917847 410.20170021 10.29248238 -2 2 0 
173 4 2 1.00000000 128.19999695 -337.45903778 412.08435702 11.43802261 -2 2 0 
174 4 1 -1.00000000 129.10000610 -336.15198517 415.44923609 9.76395798 -2 2 0 
175 4 1 -1.00000000 129.10000610 -338.74430847 416.33848119 7.48502302 -2 2 0 
176 4 2 1.00000000 128.19999695 -342.33623505 416.13519239 8.14760208 -2 2 0 
177 4 2 1.00000000 128.19999695 -343.97045135 416.42791963 11.64771175 -2 2 0 
178 4 2 1.00000000 128.19999695 -345.49911499 412.89248478 12.55627728 -2 2 0 
179 4 2 1.00000000 128.19999695 -346.30935669 410.81857848 15.68792057 -2 2 0 
180 4 2 1.00000000 128.19999695 -344.33288574 410.43900919 19.19321442 -2 2 0 
181 4 1 -1.00000000 129.10000610 -340.53679657 411.22967458 18.46350288 -2 2 0 
182 4 1 -1.00000000 129.10000610 -338.17874146 413.18560743 20.70983696 -2 2 0 
183 4 1 -1.00000000 129.10000610 -339.64833832 415.92547941 22.99598885 -2 2 0 
184 4 2 1.00000000 128.19999695 -340.09601593 418.98795509 25.32144165 -2 2 0 
185 4 2 1.00000000 128.19999695 -339.59790039 422.77840233 25.29926491 -2 2 0 
186 4 2 1.00000000 128.19999695 -337.79268646 425.93489170 23.67541122 -2 2 0 
187 4 1 -1.00000000 129.10000610 -335.37377167 429.08884621 23.46531868 -2 2 0 
188 4 2 1.00000000 128.19999695 -331.92755890 427.91961861 22.34623718 -2 2 0 
189 4 1 -1.00000000 129.10000610 -329.24430084 425.97678471 24.43342018 -2 2 0 
190 4 1 -1.00000000 129.10000610 -326.30326843 423.91524792 24.04409981 -2 2 0 
191 4 1 -1.00000000 129.10000610 -324.77669525 423.51471138 27.41240120 -2 2 0 
192 4 2 1.00000000 128.19999695 -321.48850250 421.87071705 28.40246391 -2 2 0 
193 4 1 -1.00000000 129.10000610 -319.04544830 423.47445011 25.89389610 -2 2 0 
194 4 2 1.00000000 128.19999695 -318.45329285 427.34774971 25.83840942 -2 2 0 
195 4 2 1.00000000 128.19999695 -316.57583618 430.87671471 26.66913223 -2 2 0 
196 4 2 1.00000000 128.19999695 -317.32399750 434.47590828 27.22051430 -2 2 0 
197 4 1 -1.00000000 129.10000610 -316.88956451 435.23975754 30.94171333 -2 2 0 
198 4 2 1.00000000 128.19999695 -318.98509216 437.35930443 33.45969772 -2 2 0 
199 4 1 -1.00000000 129.10000610 -320.11693573 440.64212036 32.88287354 -2 2 0 
200 4 2 1.00000000 128.19999695 -320.12048340 443.22945023 30.15702629 -2 2 0 
201 5 2 1.00000000 128.19999695 -303.35800171 -260.67392349 -232.61344337 -1 -1 -1 
202 5 1 -1.00000000 129.10000610 -306.27709961 -261.87140656 -230.55428314 -1 -1 -1 
203 5 2 1.00000000 128.19999695 -309.27774048 -259.50397873 -229.61638069 -1 -1 -1 
204 5 2 1.00000000 128.19999695 -311.58240509 -258.04853439 -232.41169739 -2 -1 -1 
205 5 2 1.00000000 128.19999695 -312.40976715 -260.83163834 -235.30836868 -2 -1 -1 
206 5 1 -1.00000000 129.10000610 -313.56340790 -260.72765732 -239.26356697 -2 -1 -1 
207 5 2 1.00000000 128.19999695 -317.14282990 -259.83541107 -239.92979813 -2 -1 -1 
208 5 1 -1.00000000 129.10000610 -319.21427917 -256.80605698 -238.71073532 -2 -1 -1 
209 5 1 -1.00000000 129.10000610 -321.66430664 -253.65476990 -237.86574364 -2 -1 -1 
210 5 1 -1.00000000 129.10000610 -322.95314026 -250.28069687 -237.38792038 -2 -1 -1 
211 5 2 1.00000000 128.19999695 -322.99301910 -246.72640610 -237.48945999 -2 -1 -1 
212 5 1 -1.00000000 129.10000610 -321.76630402 -246.04521179 -241.41563034 -2 -1 -1 
213 5 1 -1.00000000 129.10000610 -320.23030090 -248.66797638 -243.64742279 -2 -1 -1 
214 5 1 -1.00000000 129.10000610 -319.77947998 -248.92477798 -247.45071793 -2 -1 -1 
215 5 2 1.00000000 128.19999695 -316.45545197 -249.98266983 -249.22246552 -2 -1 -1 
216 5 2 1.00000000 128.19999695 -313.64865112 -250.90041351 -251.73881149 -2 -1 -1 
217 5 1 -1.00000000 129.10000610 -311.90396118 -249.26390076 -254.76318359 -2 -1 -1 
218 5 1 -1.00000000 129.10000610 -314.17182922 -246.16837692 -255.89773560 -2 -1 -1 
219 5 2 1.00000000 128.19999695 -314.30428314 -242.24049759 -255.20773697 -2 -1 -1 
220 5 1 -1.00000000 129.10000610 -316.36045074 -240.35832596 -252.43151474 -2 -1 -1 
221 5 1 -1.00000000 129.10000610 -315.89350891 -236.77517128 -253.64597702 -2 -1 -1 
222 5 1 -1.00000000 129.10000610 -313.02666473 -235.04216385 -255.04489517 -2 -1 -1 
223 5 2 1.00000000 128.19999695 -309.89907074 -234.90640450 -257.42157745 -1 -1 -1 
224 5 1 -1.00000000 129.10000610 -307.16091156 -232.35301971 -257.52514267 -1 -1 -1 
225 5 1 -1.00000000 129.10000610 -308.41297150 -228.71995735 -257.62776184 -1 -1 -1 
226 5 2 1.00000000 128.19999695 -306.29405975 -225.30282021 -258.10112000 -1 -1 -1 
227 5 2 1.00000000 128.19999695 -303.22492981 -223.49438286 -256.74673080 -1 -1 -1 
228 5 2 1.00000000 128.19999695 -301.66319275 -225.38703537 -253.80224609 -1 -1 -1 
229 5 2 1.00000000 128.19999695 -300.90725708 -227.02776718 -250.32181549 -1 -1 -1 
230 5 2 1.00000000 128.19999695 -300.34120941 -228.99234581 -247.01869202 -1 -1 -1 
231 5 1 -1.00000000 129.10000610 -298.06755829 -227.42117691 -244.16929626 -1 -1 -1 
232 5 1 -1.00000000 129.10000610 -298.44458771 -224.61928749 -241.75646973 -1 -1 -1 
233 5 1 -1.00000000 129.10000610 -299.29992676 -221.27728748 -240.28319550 -1 -1 -1 
234 5 2 1.00000000 128.19999695 -298.02914429 -218.45423985 -242.99715805 -1 -1 -1 
235 5 2 1.00000000 128.19999695 -294.44374847 -219.95285416 -243.49914932 -1 -1 -1 
236 5 2 1.00000000 128.19999695 -291.80545044 -222.49700260 -242.74011230 -1 -1 -1 
237 5 1 -1.00000000 129.10000610 -288.59656525 -223.93405724 -241.86239243 -1 -1 -1 
238 5 2 1.00000000 128.19999695 -285.27262115 -223.46685600 -240.55796814 -1 -1 -1 
239 5 1 -1.00000000 129.10000610 -284.48468781 -220.36268997 -238.90668488 -1 -1 -1 
240 5 1 -1.00000000 129.10000610 -281.18217468 -219.23552132 -238.74845695 -1 -1 -1 
241 5 1 -1.00000000 129.10000610 -277.86524200 -220.50579643 -237.32849121 -1 -1 -1 
242 5 2 1.00000000 128.19999695 -276.27494812 -220.94315720 -234.20956421 -1 -1 -1 
243 5 1 -1.00000000 129.10000610 -274.44902039 -224.27167320 -233.12280273 -1 -1 -1 
244 5 2 1.00000000 128.19999695 -275.77726746 -227.86419487 -234.53554153 -1 -1 -1 
245 5 2 1.00000000 128.19999695 -276.08913422 -230.38593864 -237.52615929 -1 -1 -1 
246 5 2 1.00000000 128.19999695 -278.64634705 -231.90105057 -239.96588516 -1 -1 -1 
247 5 1 -1.00000000 129.10000610 -278.05257416 -234.29411125 -242.66621017 -1 -1 -1 
248 5 2 1.00000000 128.19999695 -274.97992706 -236.04477119 -242.20367813 -1 -1 -1 
249 5 1 -1.00000000 129.10000610 -274.27595520 -237.99616432 -238.99168205 -1 -1 -1 
250 5 2 1.00000000 128.19999695 -275.33627319 -237.17452621 -235.33152008 -1 -1 -1 
251 6 2 1.00000000 128.19999695 467.98691559 -456.69355011 -150.80072784 2 -2 -1 
252 6 1 -1.00000000 129.10000610 464.90929031 -454.47870636 -149.77237701 2 -2 -1 
253 6 2 1.00000000 128.19999695 461.78519821 -456.59969330 -148.58529282 2 -2 -1 
254 6 2 1.00000000 128.19999695 458.29022598 -456.62555695 -150.58300781 2 -2 -1 
255 6 2 1.00000000 128.19999695 455.47122955 -459.23802185 -152.15586472 2 -2 -1 
256 6 1 -1.00000000 129.10000610 451.97066498 -460.67871094 -153.20834732 2 -2 -1 
257 6 2 1.00000000 128.19999695 451.74893951 -464.33951950 -151.47229767 2 -2 -1 
258 6 1 -1.00000000 129.10000610 450.24078369 -463.96905136 -147.98102570 2 -2 -1 
259 6 1 -1.00000000 129.10000610 450.04965210 -464.83893204 -144.39251328 2 -2 -1 
260 6 1 -1.00000000 129.10000610 447.88645935 -467.86174393 -144.88604736 2 -2 -1 
261 6 2 1.00000000 128.19999695 447.99017334 -469.72306061 -141.48075867 2 -2 -1 
262 6 1 -1.00000000 129.10000610 451.41252136 -470.24388123 -139.28948212 2 -2 -1 
263 6 1 -1.00000000 129.10000610 454.30213928 -468.44036865 -137.41772461 2 -2 -1 
264 6 1 -1.00000000 129.10000610 456.22798538 -467.89413452 -134.43316650 2 -2 -1 
265 6 2 1.00000000 128.19999695 457.40359879 -470.11817551 -131.58826447 2 -2 -1 
266 6 2 1.00000000 128.19999695 456.40834427 -473.48087692 -130.47273254 2 -2 -1 
267 6 1 -1.00000000 129.10000610 452.66848755 -473.87266159 -129.41822052 2 -2 -1 
268 6 1 -1.00000000 129.10000610 449.20932770 -475.78876877 -129.47166443 2 -2 -1 
269 6 2 1.00000000 128.19999695 449.41448212 -478.13021851 -126.42424011 2 -2 -1 
270 6 1 -1.00000000 129.10000610 450.77629089 -481.61244965 -127.49950409 2 -2 -1 
271 6 1 -1.00000000 129.10000610 450.73615646 -485.44260406 -127.37023163 2 -2 -1 
272 6 1 -1.00000000 129.10000610 451.01239395 -486.24404144 -131.01340485 2 -2 -1 
273 6 2 1.00000000 128.19999695 452.99381638 -487.62678528 -133.95945740 2 -2 -1 
274 6 1 -1.00000000 129.10000610 452.28930283 -486.18605804 -137.29912567 2 -2 -1 
275 6 1 -1.00000000 129.10000610 449.14509583 -486.28299713 -139.61054993 2 -2 -1 
276 6 2 1.00000000 128.19999695 446.52660179 -483.43157196 -139.04439545 2 -2 -1 
277 6 2 1.00000000 128.19999695 444.43769646 -480.50416565 -140.65917969 2 -2 -1 
278 6 2 1.00000000 128.19999695 442.68745422 -477.46149826 -139.20552063 2 -2 -1 
279 6 2 1.00000000 128.19999695 442.81125259 -473.65032578 -140.29507446 2 -2 -1 
280 6 2 1.00000000 128.19999695 442.95538139 -473.79410553 -144.11386108 2 -2 -1 
281 6 1 -1.00000000 129.10000610 442.27333641 -473.57337189 -147.86368942 2 -2 -1 
282 6 1 -1.00000000 129.10000610 440.78169060 -473.94802094 -151.45976257 2 -2 -1 
283 6 1 -1.00000000 129.10000610 441.97719002 -470.83768463 -153.42357254 2 -2 -1 
284 6 2 1.00000000 128.19999695 444.62115669 -468.06512070 -153.18061447 2 -2 -1 
285 6 2 1.00000000 128.19999695 445.56260681 -464.95895004 -151.04510117 2 -2 -1 
286 6 2 1.00000000 128.19999695 444.57600975 -461.93000031 -152.71148300 2 -2 -1 
287 6 1 -1.00000000 129.10000610 446.47629738 -458.62300873 -153.35674286 2 -2 -1 
288 6 2 1.00000000 128.19999695 448.14263535 -455.34733582 -152.51573563 2 -2 -1 
289 6 1 -1.00000000 129.10000610 448.31863785 -452.33504868 -154.55746841 2 -2 -1 
290 6 1 -1.00000000 129.10000610 450.03879929 -449.94144058 -152.24530411 2 -2 -1 
291 6 1 -1.00000000 129.10000610 451.76656342 -446.62522507 -152.22843170 2 -2 -1 
292 6 2 1.00000000 128.19999695 450.35132980 -442.98821449 -152.08382797 2 -2 -1 
293 6 1 -1.00000000 129.10000610 449.29608536 -440.08276939 -153.69193649 2 -2 -1 
294 6 2 1.00000000 128.19999695 447.46410370 -437.33585548 -155.21133423 2 -2 -1 
295 6 2 1.00000000 128.19999695 445.50805664 -434.06189728 -155.24626923 2 -2 -1 
296 6 2 1.00000000 128.19999695 442.51152420 -432.15219498 -154.15011597 2 -2 -1 
297 6 1 -1.00000000 129.10000610 441.26822853 -428.53839111 -153.94765854 2 -2 -1 
298 6 2 1.00000000 128.19999695 440.94058418 -424.61286068 -154.70558548 2 -2 -1 
299 6 1 -1.00000000 129.10000610 441.44740677 -423.25413322 -158.09844208 2 -2 -1 
300 6 2 1.00000000 128.19999695 439.07213402 -424.21920967 -160.86211014 2 -2 -1 
301 7 2 1.00000000 128.19999695 -6.51525688 -36.81007385 -784.13531494 0 0 -4 
302 7 1 -1.00000000 129.10000610 -9.83528805 -35.82633972 -783.43940353 0 0 -4 
303 7 2 1.00000000 128.19999695 -12.16288853 -33.76410675 -785.70551682 0 0 -4 
304 7 2 1.00000000 128.19999695 -13.10503197 -34.27016449 -789.54291916 0 0 -4 
305 7 2 1.00000000 128.19999695 -11.49326706 -37.24491119 -791.25773621 0 0 -4 
306 7 1 -1.00000000 129.10000610 -8.10116673 -38.16879272 -790.91463470 0 0 -4 
307 7 2 1.00000000 128.19999695 -5.28214836 -40.45736694 -790.20366669 0 0 -4 
308 7 1 -1.00000000 129.10000610 -4.19962645 -43.34033966 -788.44667816 0 0 -4 
309 7 1 -1.00000000 129.10000610 -0.83262628 -42.26421738 -787.47393417 0 0 -4 
310 7 1 -1.00000000 129.10000610 2.05997849 -44.27434158 -789.43282318 0 0 -4 
311 7 2 1.00000000 128.19999695 1.90889180 -45.30177689 -793.10544968 0 0 -4 
312 7 1 -1.00000000 129.10000610 3.61025047 -42.28638077 -794.67445374 0 0 -4 
313 7 1 -1.00000000 129.10000610 1.61719751 -39.15633011 -796.33930206 0 0 -4 
314 7 1 -1.00000000 129.10000610 1.19578695 -36.52530289 -798.90347099 0 0 -4 
315 7 2 1.00000000 128.19999695 -1.50254965 -34.45603561 -800.54989624 0 0 -4 
316 7 2 1.00000000 128.19999695 -5.36258030 -35.45360565 -799.95537567 0 0 -4 
317 7 1 -1.00000000 129.10000610 -7.26997232 -38.63260269 -801.35215187 0 0 -4 
318 7 1 -1.00000000 129.10000610 -11.02209377 -37.84048462 -800.71104813 0 0 -4 
319 7 2 1.00000000 128.19999695 -13.72636509 -35.19448090 -800.15096092 0 0 -4 
320 7 1 -1.00000000 129.10000610 -17.08574295 -34.80777740 -798.32514954 0 0 -4 
321 7 1 -1.00000000 129.10000610 -17.22570419 -34.95761871 -794.57668304 0 0 -4 
322 7 1 -1.00000000 129.10000610 -17.81554985 -31.79770088 -792.67747498 0 0 -4 
323 7 2 1.00000000 128.19999695 -15.07635975 -29.13915634 -792.89352417 0 0 -4 
324 7 1 -1.00000000 129.10000610 -11.80533695 -27.85520554 -793.27268600 0 0 -4 
325 7 1 -1.00000000 129.10000610 -9.25774097 -27.41774178 -795.84093475 0 0 -4 
326 7 2 1.00000000 128.19999695 -6.67696047 -30.16091537 -795.79006958 0 0 -4 
327 7 2 1.00000000 128.19999695 -4.48883963 -28.79948235 -792.78876114 0 0 -4 
328 7 2 1.00000000 128.19999695 -3.28532863 -26.55878830 -790.28608704 0 0 -4 
329 7 2 1.00000000 128.19999695 -0.21725906 -24.13792992 -789.43618774 0 0 -4 
330 7 2 1.00000000 128.19999695 -0.82322699 -21.66070747 -786.84894180 0 0 -4 
331 7 1 -1.00000000 129.10000610 -3.33637738 -18.86374092 -785.74390030 0 0 -4 
332 7 1 -1.00000000 129.10000610 -5.95146656 -16.61252403 -783.45103455 0 0 -4 
333 7 1 -1.00000000 129.10000610 -2.73554134 -14.35423660 -782.41927338 0 0 -4 
334 7 2 1.00000000 128.19999695 -3.43980408 -13.33905029 -778.93563461 0 0 -4 
335 7 2 1.00000000 128.19999695 -4.55810738 -15.93304062 -776.40360641 0 0 -4 
336 7 2 1.00000000 128.19999695 -8.40889168 -17.42688560 -777.34373474 0 0 -4 
337 7 1 -1.00000000 129.10000610 -9.18127537 -21.36675644 -777.07435989 0 0 -4 
338 7 2 1.00000000 128.19999695 -6.15903378 -23.50952721 -778.45904160 0 0 -4 
339 7 1 -1.00000000 129.10000610 -8.08123970 -26.32733345 -780.47527313 0 0 -4 
340 7 1 -1.00000000 129.10000610 -6.25550461 -26.78967094 -783.67666626 0 0 -4 
341 7 1 -1.00000000 129.10000610 -3.07596898 -29.04353714 -784.48815918 0 0 -4 
342 7 2 1.00000000 128.19999695 0.21642986 -30.16263580 -786.13831711 0 0 -4 
343 7 1 -1.00000000 129.10000610 0.63251770 -32.10528564 -789.45973587 0 0 -4 
344 7 2 1.00000000 128.19999695 2.32847619 -35.08256912 -788.32199860 0 0 -4 
345 7 2 1.00000000 128.19999695 5.51103115 -37.12956619 -788.76322937 0 0 -4 
346 7 2 1.00000000 128.19999695 5.93850803 -40.34440613 -786.81464767 0 0 -4 
347 7 1 -1.00000000 129.10000610 3.81471252 -39.64469528 -783.75508118 0 0 -4 
348 7 2 1.00000000 128.19999695 0.99557692 -37.41610336 -782.02249908 0 0 -4 
349 7 1 -1.00000000 129.10000610 1.77659690 -37.93727875 -778.15702438 0 0 -4 
350 7 2 1.00000000 128.19999695 1.01280499 -39.87858200 -775.14016342 0 0 -4 
351 8 2 1.00000000 128.19999695 16.01520729 -265.97772217 563.55289841 0 -1 3 
352 8 1 -1.00000000 129.10000610 19.55257225 -267.12499619 564.53027725 0 -1 3 
353 8 2 1.00000000 128.19999695 22.28129768 -265.64141464 566.76704407 0 -1 3 
354 8 2 1.00000000 128.19999695 25.14776421 -264.28330612 569.10534286 0 -1 3 
355 8 2 1.00000000 128.19999695 25.97141266 -262.95633316 572.59367752 0 -1 3 
356 8 1 -1.00000000 129.10000610 27.35889053 -264.63220215 575.69136047 0 -1 3 
357 8 2 1.00000000 128.19999695 27.10031509 -262.28351593 578.71494675 0 -1 3 
358 8 1 -1.00000000 129.10000610 25.11660194 -260.77466202 581.48624420 0 -1 3 
359 8 1 -1.00000000 129.10000610 25.75363350 -262.69707489 584.44742203 0 -1 3 
360 8 1 -1.00000000 129.10000610 27.82311630 -261.51045990 587.06653976 0 -1 3 
361 8 2 1.00000000 128.19999695 31.43545532 -260.33482742 586.60329819 0 -1 3 
362 8 1 -1.00000000 129.10000610 33.57447052 -261.54273224 589.45163727 0 -1 3 
363 8 1 -1.00000000 129.10000610 36.98383713 -260.25942612 590.23714066 0 -1 3 
364 8 1 -1.00000000 129.10000610 39.06830215 -261.34918594 587.11420059 0 -1 3 
365 8 2 1.00000000 128.19999695 41.43766403 -260.09692383 584.09261703 0 -1 3 
366 8 2 1.00000000 128.19999695 44.96171951 -259.07801437 582.80480957 0 -1 3 
367 8 1 -1.00000000 129.10000610 47.83726883 -259.57486343 580.18173599 0 -1 3 
368 8 1 -1.00000000 129.10000610 49.78317642 -256.36687088 579.89105225 0 -1 3 