ITEM: TIMESTEP
44100000 
ITEM: NUMBER OF ATOMS 
25000 
ITEM: BOX BOUNDS pp pp pp 
-103.678017 103.678017 
-103.678017 103.678017 
-103.678017 103.678017 
ITEM: ATOMS id mol type q mass xu yu zu ix iy iz 
1 1 2 1.00000000 128.19999695 534.38007355 -233.49666405 -243.80150223 3 -1 -1 
2 1 1 -1.00000000 129.10000610 533.74647522 -234.74555016 -247.26771927 3 -1 -1 
3 1 2 1.00000000 128.19999695 530.58702087 -232.27405357 -247.99610901 3 -1 -1 
4 1 2 1.00000000 128.19999695 529.88934326 -228.55409050 -247.19488525 3 -1 -1 
5 1 2 1.00000000 128.19999695 529.11219788 -226.69381523 -250.29054260 3 -1 -1 
6 1 1 -1.00000000 129.10000610 527.92992401 -224.84774399 -253.21766663 3 -1 -1 
7 1 2 1.00000000 128.19999695 529.09905243 -223.29935646 -256.77975464 3 -1 -1 
8 1 1 -1.00000000 129.10000610 525.75470734 -223.54490089 -258.98820877 3 -1 -1 
9 1 1 -1.00000000 129.10000610 524.22489929 -220.50040627 -260.82067108 3 -1 -1 
10 1 1 -1.00000000 129.10000610 521.00757599 -218.95890236 -262.79097748 3 -1 -1 
11 1 2 1.00000000 128.19999695 519.07460785 -215.73499775 -262.16944122 3 -1 -1 
12 1 1 -1.00000000 129.10000610 515.72236633 -214.03704548 -262.17576218 2 -1 -1 
13 1 1 -1.00000000 129.10000610 512.87222290 -216.12049675 -260.23856354 2 -1 -1 
14 1 1 -1.00000000 129.10000610 512.69396973 -218.68992996 -263.41434860 2 -1 -1 
15 1 2 1.00000000 128.19999695 511.56970215 -221.50822258 -265.70320892 2 -1 -1 
16 1 2 1.00000000 128.19999695 512.42864990 -222.96899509 -269.13010788 2 -1 -1 
17 1 1 -1.00000000 129.10000610 514.79970551 -222.03843880 -272.14959717 2 -1 -1 
18 1 1 -1.00000000 129.10000610 517.48847961 -220.72168350 -274.84894562 2 -1 -1 
19 1 2 1.00000000 128.19999695 518.88590240 -218.02678108 -277.10636902 3 -1 -1 
20 1 1 -1.00000000 129.10000610 518.69294739 -214.36246538 -277.92133331 3 -1 -1 
21 1 1 -1.00000000 129.10000610 515.79208374 -211.18558645 -277.33456421 2 -1 -1 
22 1 1 -1.00000000 129.10000610 512.07415009 -211.37027979 -276.84751892 2 -1 -1 
23 1 2 1.00000000 128.19999695 508.45561218 -211.13216448 -275.19446564 2 -1 -1 
24 1 1 -1.00000000 129.10000610 505.04703522 -213.08954144 -275.51541901 2 -1 -1 
25 1 1 -1.00000000 129.10000610 502.67072296 -215.64118481 -273.33650208 2 -1 -1 
26 1 2 1.00000000 128.19999695 505.50514221 -216.64250374 -270.96504974 2 -1 -1 
27 1 2 1.00000000 128.19999695 509.23441315 -217.46716022 -271.03977966 2 -1 -1 
28 1 2 1.00000000 128.19999695 512.31065369 -215.47607994 -272.44902039 2 -1 -1 
29 1 2 1.00000000 128.19999695 515.16580200 -213.78635216 -270.33266830 2 -1 -1 
30 1 2 1.00000000 128.19999695 515.38472748 -209.98526859 -269.61894226 2 -1 -1 
31 1 1 -1.00000000 129.10000610 517.11753082 -209.00891805 -266.30240250 2 -1 -1 
32 1 1 -1.00000000 129.10000610 519.20262909 -207.30339548 -263.57316208 3 -1 -1 
33 1 1 -1.00000000 129.10000610 522.22771454 -209.48335695 -264.28857803 3 -1 -1 
34 1 2 1.00000000 128.19999695 525.97251892 -209.21483445 -265.12016296 3 -1 -1 
35 1 2 1.00000000 128.19999695 527.11721802 -212.09230280 -266.90642548 3 -1 -1 
36 1 2 1.00000000 128.19999695 527.65126038 -212.31308317 -270.65533066 3 -1 -1 
37 1 1 -1.00000000 129.10000610 525.94742584 -209.33578682 -272.03964233 3 -1 -1 
38 1 2 1.00000000 128.19999695 522.22060394 -208.46919632 -273.54235077 3 -1 -1 
39 1 1 -1.00000000 129.10000610 520.21241760 -205.06421256 -273.57761383 3 -1 -1 
40 1 1 -1.00000000 129.10000610 520.23773956 -202.08606434 -271.51125336 3 -1 -1 
41 1 1 -1.00000000 129.10000610 521.00128174 -202.31875420 -267.80178070 3 -1 -1 
42 1 2 1.00000000 128.19999695 524.23892975 -202.53962231 -265.49428558 3 -1 -1 
43 1 1 -1.00000000 129.10000610 523.24853516 -202.39466095 -261.79383469 3 -1 -1 
44 1 2 1.00000000 128.19999695 524.07458496 -204.56232882 -258.95518112 3 -1 -1 
45 1 2 1.00000000 128.19999695 526.80792236 -203.10498619 -256.90361786 3 -1 -1 
46 1 2 1.00000000 128.19999695 528.54105377 -203.92731595 -253.42695618 3 -1 -1 
47 1 1 -1.00000000 129.10000610 526.19921112 -206.93600419 -252.28446198 3 -1 -1 
48 1 2 1.00000000 128.19999695 522.94651794 -208.84079957 -253.18440247 3 -1 -1 
49 1 1 -1.00000000 129.10000610 521.64108276 -212.24516344 -253.71213531 3 -1 -1 
50 1 2 1.00000000 128.19999695 519.79268646 -215.45405102 -253.74392319 3 -1 -1 
51 2 2 1.00000000 128.19999695 552.35489655 304.16684723 -332.38044739 3 1 -2 
52 2 1 -1.00000000 129.10000610 550.40696716 307.10773468 -330.36193848 3 1 -2 
53 2 2 1.00000000 128.19999695 548.82263947 310.45590973 -330.11003876 3 1 -2 
54 2 2 1.00000000 128.19999695 545.60248566 311.30557251 -331.64694977 3 2 -2 
55 2 2 1.00000000 128.19999695 543.84690094 309.85749054 -334.43824005 3 1 -2 
56 2 1 -1.00000000 129.10000610 541.37778473 308.91897583 -337.20201111 3 1 -2 
57 2 2 1.00000000 128.19999695 540.50932312 305.21707916 -337.99482727 3 1 -2 
58 2 1 -1.00000000 129.10000610 538.32714081 302.85916138 -336.84871674 3 1 -2 
59 2 1 -1.00000000 129.10000610 539.13630676 300.69197083 -333.93852997 3 1 -2 
60 2 1 -1.00000000 129.10000610 542.45819855 300.00379944 -332.31868744 3 1 -2 
61 2 2 1.00000000 128.19999695 545.22554016 297.75159454 -331.74134827 3 1 -2 
62 2 1 -1.00000000 129.10000610 547.85675812 295.33766174 -330.37553406 3 1 -2 
63 2 1 -1.00000000 129.10000610 549.12572479 295.12032318 -326.84297180 3 1 -2 
64 2 1 -1.00000000 129.10000610 548.07329559 298.30583191 -325.35234070 3 1 -2 
65 2 2 1.00000000 128.19999695 547.33082581 298.01025391 -321.65904236 3 1 -2 
66 2 2 1.00000000 128.19999695 544.94208527 299.61930847 -319.56728363 3 1 -2 
67 2 1 -1.00000000 129.10000610 543.89420319 302.93904877 -321.27632141 3 1 -2 
68 2 1 -1.00000000 129.10000610 542.15474701 305.01548004 -318.70769501 3 1 -2 
69 2 2 1.00000000 128.19999695 544.34479523 307.74230194 -317.76136780 3 1 -2 
70 2 1 -1.00000000 129.10000610 547.78946686 306.44750214 -317.69189453 3 1 -2 
71 2 1 -1.00000000 129.10000610 550.98957062 304.58158875 -317.81246185 3 1 -2 
72 2 1 -1.00000000 129.10000610 553.33964539 303.32803345 -315.33499908 3 1 -2 
73 2 2 1.00000000 128.19999695 555.46025848 303.25045013 -312.05875397 3 1 -2 
74 2 1 -1.00000000 129.10000610 556.52883911 303.18929291 -308.33361053 3 1 -1 
75 2 1 -1.00000000 129.10000610 556.67129517 307.14816284 -307.27217102 3 1 -1 
76 2 2 1.00000000 128.19999695 557.63208771 309.61019135 -304.44931030 3 1 -1 
77 2 2 1.00000000 128.19999695 560.95227814 309.51711273 -303.13279724 3 1 -1 
78 2 2 1.00000000 128.19999695 563.73572159 309.37490845 -300.57731628 3 1 -1 
79 2 2 1.00000000 128.19999695 566.41205978 311.91521454 -299.42891693 3 2 -1 
80 2 2 1.00000000 128.19999695 569.43727875 314.04257202 -298.51550293 3 2 -1 
81 2 1 -1.00000000 129.10000610 573.02515411 315.79325104 -299.53307343 3 2 -1 
82 2 1 -1.00000000 129.10000610 576.72984695 316.49312592 -300.45630646 3 2 -1 
83 2 1 -1.00000000 129.10000610 577.34772491 316.41268921 -304.35350800 3 2 -1 
84 2 2 1.00000000 128.19999695 580.59854126 316.51028442 -306.44068909 3 2 -1 
85 2 2 1.00000000 128.19999695 582.53436661 318.27663422 -308.98845673 3 2 -1 
86 2 2 1.00000000 128.19999695 585.18453979 319.55032349 -311.54975128 3 2 -2 
87 2 1 -1.00000000 129.10000610 588.85580444 319.89251709 -312.33535767 3 2 -2 
88 2 2 1.00000000 128.19999695 589.61903763 322.25727081 -314.67608643 3 2 -2 
89 2 1 -1.00000000 129.10000610 590.97514725 321.74918365 -318.24848938 3 2 -2 
90 2 1 -1.00000000 129.10000610 587.94412994 320.89259338 -320.73714447 3 2 -2 
91 2 1 -1.00000000 129.10000610 584.31247711 320.54011536 -321.57289886 3 2 -2 
92 2 2 1.00000000 128.19999695 580.68020630 320.88665771 -321.22496033 3 2 -2 
93 2 1 -1.00000000 129.10000610 578.31401825 318.47333527 -323.23609924 3 2 -2 
94 2 2 1.00000000 128.19999695 579.22977448 315.56784821 -325.52844238 3 2 -2 
95 2 2 1.00000000 128.19999695 580.13481140 312.07275391 -324.08434296 3 2 -2 
96 2 2 1.00000000 128.19999695 581.63889694 308.84529877 -325.40645599 3 1 -2 
97 2 1 -1.00000000 129.10000610 582.92337418 305.09934235 -325.02583313 3 1 -2 
98 2 2 1.00000000 128.19999695 586.32691956 304.16105652 -323.92462158 3 1 -2 
99 2 1 -1.00000000 129.10000610 589.14152908 303.82798004 -321.46345520 3 1 -2 
100 2 2 1.00000000 128.19999695 591.17785645 305.40615845 -318.46957397 3 1 -2 
101 3 2 1.00000000 128.19999695 302.29174042 -102.52233887 104.08271790 1 0 1 
102 3 1 -1.00000000 129.10000610 302.22930145 -103.38554382 108.32305145 1 0 1 
103 3 2 1.00000000 128.19999695 302.14646912 -104.92226410 111.90921021 1 -1 1 
104 3 2 1.00000000 128.19999695 304.69991302 -105.19422150 114.37798309 1 -1 1 
105 3 2 1.00000000 128.19999695 308.13882446 -104.43810272 112.68241882 1 -1 1 
106 3 1 -1.00000000 129.10000610 309.65953827 -106.47205353 109.81487274 1 -1 1 
107 3 2 1.00000000 128.19999695 308.87448883 -105.60974884 106.27049255 1 -1 1 
108 3 1 -1.00000000 129.10000610 306.76384735 -108.35395050 104.69898987 1 -1 1 
109 3 1 -1.00000000 129.10000610 304.43176270 -110.81716156 103.78987885 1 -1 1 
110 3 1 -1.00000000 129.10000610 302.90967560 -110.13404846 100.31147003 1 -1 0 
111 3 2 1.00000000 128.19999695 302.05876923 -106.83111572 98.17750549 1 -1 0 
112 3 1 -1.00000000 129.10000610 301.93920898 -106.81959534 94.16747284 1 -1 0 
113 3 1 -1.00000000 129.10000610 303.30020142 -103.99505615 92.23047638 1 -1 0 
114 3 1 -1.00000000 129.10000610 305.52818298 -105.26396179 89.25665283 1 -1 0 
115 3 2 1.00000000 128.19999695 309.20914459 -105.22113800 90.43895721 1 -1 0 
116 3 2 1.00000000 128.19999695 311.58056641 -107.00125885 92.42174530 2 -1 0 
117 3 1 -1.00000000 129.10000610 313.92179108 -104.03038788 93.09514618 2 -1 0 
118 3 1 -1.00000000 129.10000610 317.15309143 -105.44736481 95.10958862 2 -1 0 
119 3 2 1.00000000 128.19999695 319.86983490 -107.85697174 94.65921021 2 -1 0 
120 3 1 -1.00000000 129.10000610 318.17468262 -111.03660583 95.35958099 2 -1 0 
121 3 1 -1.00000000 129.10000610 316.62373352 -114.24536133 93.94608307 2 -1 0 
122 3 1 -1.00000000 129.10000610 318.17101288 -117.39915466 92.22354126 2 -1 0 
123 3 2 1.00000000 128.19999695 321.45206451 -119.39741516 92.44653320 2 -1 0 
124 3 1 -1.00000000 129.10000610 324.96637726 -118.18707275 93.18453979 2 -1 0 
125 3 1 -1.00000000 129.10000610 326.59069061 -121.59107971 94.06779480 2 -1 0 
126 3 2 1.00000000 128.19999695 329.53429413 -121.16690063 96.72206116 2 -1 0 
127 3 2 1.00000000 128.19999695 333.17791748 -119.79656219 96.98463440 2 -1 0 
128 3 2 1.00000000 128.19999695 336.76976013 -121.65003204 97.05535889 2 -1 0 
129 3 2 1.00000000 128.19999695 338.84065247 -120.90200043 100.77157593 2 -1 0 
130 3 2 1.00000000 128.19999695 335.43756104 -121.20726013 102.75688171 2 -1 0 
131 3 1 -1.00000000 129.10000610 333.74517822 -122.14502716 106.30659485 2 -1 1 
132 3 1 -1.00000000 129.10000610 334.79125977 -119.35946655 108.91207123 2 -1 1 
133 3 1 -1.00000000 129.10000610 335.72053528 -118.23167419 112.35408783 2 -1 1 
134 3 2 1.00000000 128.19999695 337.54419708 -116.88294983 115.15766144 2 -1 1 
135 3 2 1.00000000 128.19999695 338.92046356 -118.98235321 117.92439270 2 -1 1 
136 3 2 1.00000000 128.19999695 340.95357513 -122.36909485 117.56774902 2 -1 1 
137 3 1 -1.00000000 129.10000610 342.07595062 -124.20085907 114.13578796 2 -1 1 
138 3 2 1.00000000 128.19999695 344.66345215 -124.86065674 111.42684937 2 -1 1 
139 3 1 -1.00000000 129.10000610 346.30915833 -128.10075378 110.24779510 2 -1 1 
140 3 1 -1.00000000 129.10000610 344.52610779 -131.12311554 109.41085815 2 -1 1 
141 3 1 -1.00000000 129.10000610 342.29633331 -132.63628387 106.54383087 2 -1 1 
142 3 2 1.00000000 128.19999695 340.09377289 -135.00657654 107.97673798 2 -1 1 
143 3 1 -1.00000000 129.10000610 339.32520294 -138.50558472 109.72913361 2 -1 1 
144 3 2 1.00000000 128.19999695 339.50875854 -138.60118103 113.46136475 2 -1 1 
145 3 2 1.00000000 128.19999695 336.75077057 -137.07543182 115.39501190 2 -1 1 
146 3 2 1.00000000 128.19999695 337.98857880 -135.42779541 118.74931335 2 -1 1 
147 3 1 -1.00000000 129.10000610 338.40804291 -132.24633026 121.14400482 2 -1 1 
148 3 2 1.00000000 128.19999695 341.60319519 -130.25520325 121.51616669 2 -1 1 
149 3 1 -1.00000000 129.10000610 343.97913361 -131.58753204 118.79325867 2 -1 1 
150 3 2 1.00000000 128.19999695 343.88578033 -130.77557373 115.24312592 2 -1 1 
151 4 2 1.00000000 128.19999695 -314.24314117 357.24958038 -42.74808884 -2 2 0 
152 4 1 -1.00000000 129.10000610 -311.76723480 354.09472656 -42.24752808 -2 2 0 
153 4 2 1.00000000 128.19999695 -308.45282745 353.27188873 -40.68053436 -1 2 0 
154 4 2 1.00000000 128.19999695 -305.37474823 352.15346527 -42.74133682 -1 2 0 
155 4 2 1.00000000 128.19999695 -303.35489655 348.93600464 -41.80422211 -1 2 0 
156 4 1 -1.00000000 129.10000610 -299.66168976 348.96951294 -41.64427948 -1 2 0 
157 4 2 1.00000000 128.19999695 -298.84762573 346.97570801 -38.30252838 -1 2 0 
158 4 1 -1.00000000 129.10000610 -297.65931702 346.24546814 -34.97904205 -1 2 0 
159 4 1 -1.00000000 129.10000610 -299.23182678 346.08379364 -31.34925842 -1 2 0 
160 4 1 -1.00000000 129.10000610 -300.65430450 345.75839996 -27.95732880 -1 2 0 
161 4 2 1.00000000 128.19999695 -301.16992188 344.29280090 -24.49532700 -1 2 0 
162 4 1 -1.00000000 129.10000610 -300.21867371 345.82529449 -20.87704659 -1 2 0 
163 4 1 -1.00000000 129.10000610 -303.26887512 344.73609924 -18.67285347 -1 2 0 
164 4 1 -1.00000000 129.10000610 -303.79523468 346.48003387 -15.63522053 -1 2 0 
165 4 2 1.00000000 128.19999695 -302.43096161 348.53093719 -12.48167706 -1 2 0 
166 4 2 1.00000000 128.19999695 -298.72819519 349.53179169 -12.05217266 -1 2 0 
167 4 1 -1.00000000 129.10000610 -297.35845947 352.84603500 -11.14985180 -1 2 0 
168 4 1 -1.00000000 129.10000610 -297.46754456 356.73869705 -9.64236355 -1 2 0 
169 4 2 1.00000000 128.19999695 -296.81538391 354.99189758 -6.07534647 -1 2 0 
170 4 1 -1.00000000 129.10000610 -297.46880341 354.88396454 -2.32818675 -1 2 0 
171 4 1 -1.00000000 129.10000610 -296.47926331 358.24054337 -0.63726193 -1 2 0 
172 4 1 -1.00000000 129.10000610 -296.12647247 357.62690735 3.34321284 -1 2 0 
173 4 2 1.00000000 128.19999695 -295.71147156 355.99433517 6.74417257 -1 2 0 
174 4 1 -1.00000000 129.10000610 -294.95849609 353.34584427 9.28066349 -1 2 0 
175 4 1 -1.00000000 129.10000610 -297.55411530 350.68856812 10.45920563 -1 2 0 
176 4 2 1.00000000 128.19999695 -296.99543762 346.96569061 11.27684975 -1 2 0 
177 4 2 1.00000000 128.19999695 -298.36766052 344.87126160 8.49008274 -1 2 0 
178 4 2 1.00000000 128.19999695 -297.00613403 341.00662994 9.15716839 -1 2 0 
179 4 2 1.00000000 128.19999695 -297.84535217 338.32775879 11.85664368 -1 2 0 
180 4 2 1.00000000 128.19999695 -297.86654663 335.00099945 13.33312225 -1 2 0 
181 4 1 -1.00000000 129.10000610 -300.37535095 331.86669159 12.73682594 -1 2 0 
182 4 1 -1.00000000 129.10000610 -301.64768219 330.40637207 15.94698906 -1 2 0 
183 4 1 -1.00000000 129.10000610 -302.20365143 329.37338257 19.46998787 -1 2 0 
184 4 2 1.00000000 128.19999695 -305.66652679 330.37741852 20.53851128 -1 2 0 
185 4 2 1.00000000 128.19999695 -308.26277161 330.08014679 23.48000336 -1 2 0 
186 4 2 1.00000000 128.19999695 -310.25374603 333.19886017 24.50489235 -1 2 0 
187 4 1 -1.00000000 129.10000610 -311.89682007 334.33166504 21.29220963 -2 2 0 
188 4 2 1.00000000 128.19999695 -315.15607452 335.98223114 20.27445030 -2 2 0 
189 4 1 -1.00000000 129.10000610 -317.15203857 336.39562225 23.40243530 -2 2 0 
190 4 1 -1.00000000 129.10000610 -318.76876831 339.48879242 24.17862320 -2 2 0 
191 4 1 -1.00000000 129.10000610 -320.79152679 341.86986542 21.65286255 -2 2 0 
192 4 2 1.00000000 128.19999695 -318.04103088 343.75644684 20.25166702 -2 2 0 
193 4 1 -1.00000000 129.10000610 -315.23648834 346.48794556 20.80498314 -2 2 0 
194 4 2 1.00000000 128.19999695 -315.01906586 347.01817322 24.36285973 -2 2 0 
195 4 2 1.00000000 128.19999695 -311.63672638 349.09207916 25.47278786 -2 2 0 
196 4 2 1.00000000 128.19999695 -310.06381226 351.78788757 22.94099045 -1 2 0 
197 4 1 -1.00000000 129.10000610 -312.12274170 354.58843994 24.00190926 -2 2 0 
198 4 2 1.00000000 128.19999695 -315.43006897 355.93204498 22.45536804 -2 2 0 
199 4 1 -1.00000000 129.10000610 -316.36301422 353.00692749 19.77096558 -2 2 0 
200 4 2 1.00000000 128.19999695 -319.26430511 350.76520920 20.60337639 -2 2 0 
201 5 2 1.00000000 128.19999695 -346.87573242 -231.59877205 -254.33200073 -2 -1 -1 
202 5 1 -1.00000000 129.10000610 -344.83940887 -228.26362991 -254.30563736 -2 -1 -1 
203 5 2 1.00000000 128.19999695 -346.11301422 -225.60255432 -256.98141861 -2 -1 -1 
204 5 2 1.00000000 128.19999695 -348.51094055 -222.53352261 -255.94990158 -2 -1 -1 
205 5 2 1.00000000 128.19999695 -347.53999329 -220.99609470 -252.71542358 -2 -1 -1 
206 5 1 -1.00000000 129.10000610 -343.74713898 -220.64229774 -252.35416794 -2 -1 -1 
207 5 2 1.00000000 128.19999695 -340.81469727 -222.88865185 -252.17834091 -2 -1 -1 
208 5 1 -1.00000000 129.10000610 -337.56784821 -221.41939545 -251.76562881 -2 -1 -1 
209 5 1 -1.00000000 129.10000610 -333.62387085 -222.31171703 -252.12945557 -2 -1 -1 
210 5 1 -1.00000000 129.10000610 -333.61991882 -225.33954430 -254.16831207 -2 -1 -1 
211 5 2 1.00000000 128.19999695 -335.40676117 -228.77226257 -255.02685547 -2 -1 -1 
212 5 1 -1.00000000 129.10000610 -336.85660553 -230.07422638 -251.92815399 -2 -1 -1 
213 5 1 -1.00000000 129.10000610 -338.91516876 -230.97126961 -248.71660233 -2 -1 -1 
214 5 1 -1.00000000 129.10000610 -342.48958588 -229.80069542 -248.56759262 -2 -1 -1 
215 5 2 1.00000000 128.19999695 -344.44117737 -232.47694016 -246.84288406 -2 -1 -1 
216 5 2 1.00000000 128.19999695 -346.23709869 -232.12403679 -243.60884094 -2 -1 -1 
217 5 1 -1.00000000 129.10000610 -347.12871552 -232.58073425 -240.07110977 -2 -1 -1 
218 5 1 -1.00000000 129.10000610 -350.23287201 -231.59735680 -238.25394249 -2 -1 -1 
219 5 2 1.00000000 128.19999695 -353.09680939 -232.86464500 -236.12725258 -2 -1 -1 
220 5 1 -1.00000000 129.10000610 -356.34193039 -234.06655121 -234.33419228 -2 -1 -1 
221 5 1 -1.00000000 129.10000610 -357.76834106 -236.63465309 -232.50177193 -2 -1 -1 
222 5 1 -1.00000000 129.10000610 -361.29530716 -237.74912262 -233.66966629 -2 -1 -1 
223 5 2 1.00000000 128.19999695 -361.16899872 -241.62979126 -233.58179665 -2 -1 -1 
224 5 1 -1.00000000 129.10000610 -361.22835159 -245.11873627 -235.15376854 -2 -1 -1 
225 5 1 -1.00000000 129.10000610 -357.69181824 -246.37850952 -235.56127930 -2 -1 -1 
226 5 2 1.00000000 128.19999695 -356.11233521 -247.62539291 -232.11380386 -2 -1 -1 
227 5 2 1.00000000 128.19999695 -352.93793106 -249.35498428 -231.74927330 -2 -1 -1 
228 5 2 1.00000000 128.19999695 -350.34571838 -251.25371170 -229.38175392 -2 -1 -1 
229 5 2 1.00000000 128.19999695 -348.47048187 -253.78602600 -231.59743690 -2 -1 -1 
230 5 2 1.00000000 128.19999695 -344.55945587 -253.80855942 -232.65757561 -2 -1 -1 
231 5 1 -1.00000000 129.10000610 -341.36355591 -252.86291122 -234.89245605 -2 -1 -1 
232 5 1 -1.00000000 129.10000610 -338.76383972 -250.78325653 -232.93379402 -2 -1 -1 
233 5 1 -1.00000000 129.10000610 -339.74842834 -248.38830185 -229.71666145 -2 -1 -1 
234 5 2 1.00000000 128.19999695 -342.44345093 -245.70467377 -228.82647324 -2 -1 -1 
235 5 2 1.00000000 128.19999695 -346.01861572 -245.45181656 -227.20026016 -2 -1 -1 
236 5 2 1.00000000 128.19999695 -348.32843018 -246.19811249 -224.47803116 -2 -1 -1 
237 5 1 -1.00000000 129.10000610 -351.59967804 -247.24165344 -225.24765968 -2 -1 -1 
238 5 2 1.00000000 128.19999695 -355.25410843 -248.58192062 -224.53862381 -2 -1 -1 
239 5 1 -1.00000000 129.10000610 -358.96018219 -248.56311417 -223.06487656 -2 -1 -1 
240 5 1 -1.00000000 129.10000610 -362.23695374 -248.61738205 -220.94790363 -2 -1 -1 
241 5 1 -1.00000000 129.10000610 -363.72480392 -252.33669662 -219.22786903 -2 -1 -1 
242 5 2 1.00000000 128.19999695 -367.09298706 -254.01287079 -218.84541702 -2 -1 -1 
243 5 1 -1.00000000 129.10000610 -369.82347870 -250.84260178 -219.00424194 -2 -1 -1 
244 5 2 1.00000000 128.19999695 -373.54312897 -251.60316086 -218.25345325 -2 -1 -1 
245 5 2 1.00000000 128.19999695 -376.15772629 -253.55763626 -219.87341404 -2 -1 -1 
246 5 2 1.00000000 128.19999695 -379.51339340 -254.05341721 -220.29276085 -2 -1 -1 
247 5 1 -1.00000000 129.10000610 -381.79086304 -253.34775543 -223.36042595 -2 -1 -1 
248 5 2 1.00000000 128.19999695 -381.77931595 -253.78610992 -226.97105026 -2 -1 -1 
249 5 1 -1.00000000 129.10000610 -383.37777328 -250.80740738 -228.86903954 -2 -1 -1 
250 5 2 1.00000000 128.19999695 -386.33947372 -248.78409195 -230.73424339 -2 -1 -1 
251 6 2 1.00000000 128.19999695 501.43255615 -472.48691940 -99.21375275 2 -2 0 
252 6 1 -1.00000000 129.10000610 502.83168793 -475.20486832 -101.15673065 2 -2 0 
253 6 2 1.00000000 128.19999695 501.96499634 -477.26294708 -104.25524902 2 -2 -1 
254 6 2 1.00000000 128.19999695 502.09798431 -480.70620728 -104.86888885 2 -2 -1 
255 6 2 1.00000000 128.19999695 500.64657593 -483.66773224 -106.65679932 2 -2 -1 
256 6 1 -1.00000000 129.10000610 497.11136627 -483.79762268 -105.48159790 2 -2 -1 
257 6 2 1.00000000 128.19999695 493.92765808 -484.74792480 -106.31534576 2 -2 -1 
258 6 1 -1.00000000 129.10000610 492.52671051 -487.62781525 -108.41285706 2 -2 -1 
259 6 1 -1.00000000 129.10000610 489.63022614 -489.72578430 -106.88986206 2 -2 -1 
260 6 1 -1.00000000 129.10000610 487.17342377 -487.00096130 -106.03654480 2 -2 -1 
261 6 2 1.00000000 128.19999695 484.16169739 -486.47164917 -103.48370361 2 -2 0 
262 6 1 -1.00000000 129.10000610 480.70457458 -487.95331573 -102.94959259 2 -2 0 
263 6 1 -1.00000000 129.10000610 477.63856888 -489.27229309 -104.86289978 2 -2 -1 
264 6 1 -1.00000000 129.10000610 479.21182251 -491.34685516 -107.69026947 2 -2 -1 
265 6 2 1.00000000 128.19999695 478.96992493 -494.76209259 -109.51982117 2 -2 -1 
266 6 2 1.00000000 128.19999695 477.92258835 -495.95198822 -113.01023865 2 -2 -1 
267 6 1 -1.00000000 129.10000610 475.47779846 -496.31874847 -115.74947357 2 -2 -1 
268 6 1 -1.00000000 129.10000610 471.46802902 -495.76981354 -116.00195312 2 -2 -1 
269 6 2 1.00000000 128.19999695 469.93094635 -493.23748016 -118.56725311 2 -2 -1 
270 6 1 -1.00000000 129.10000610 466.31741714 -492.32991028 -119.54892731 2 -2 -1 
271 6 1 -1.00000000 129.10000610 463.53363037 -492.85690308 -122.11235809 2 -2 -1 
272 6 1 -1.00000000 129.10000610 464.25579071 -491.30708313 -125.55254364 2 -2 -1 
273 6 2 1.00000000 128.19999695 465.09295654 -493.29605865 -128.60484314 2 -2 -1 
274 6 1 -1.00000000 129.10000610 463.55026627 -491.63858795 -131.44818115 2 -2 -1 
275 6 1 -1.00000000 129.10000610 466.15481186 -488.70954895 -132.24282074 2 -2 -1 
276 6 2 1.00000000 128.19999695 463.59743500 -485.77645111 -131.62635803 2 -2 -1 
277 6 2 1.00000000 128.19999695 460.96487427 -484.49332428 -134.18304443 2 -2 -1 
278 6 2 1.00000000 128.19999695 460.94102097 -486.44172668 -137.53778839 2 -2 -1 
279 6 2 1.00000000 128.19999695 463.65970612 -488.62168884 -138.12033081 2 -2 -1 
280 6 2 1.00000000 128.19999695 464.48426437 -491.02571106 -140.56909180 2 -2 -1 
281 6 1 -1.00000000 129.10000610 463.68880081 -492.69882965 -144.08425140 2 -2 -1 
282 6 1 -1.00000000 129.10000610 460.25312424 -494.25851440 -143.76149750 2 -2 -1 
283 6 1 -1.00000000 129.10000610 458.48298645 -497.66234589 -144.09223175 2 -2 -1 
284 6 2 1.00000000 128.19999695 458.29089355 -500.04214478 -146.55854416 2 -2 -1 
285 6 2 1.00000000 128.19999695 457.86709976 -503.91056824 -147.27594376 2 -2 -1 
286 6 2 1.00000000 128.19999695 461.00822449 -505.34823608 -148.31077957 2 -2 -1 
287 6 1 -1.00000000 129.10000610 461.54197693 -509.05950165 -148.81597900 2 -2 -1 
288 6 2 1.00000000 128.19999695 463.00576019 -511.18330383 -146.18486404 2 -2 -1 
289 6 1 -1.00000000 129.10000610 464.86054230 -513.93368530 -144.77309799 2 -2 -1 
290 6 1 -1.00000000 129.10000610 465.08366776 -517.44454193 -143.09955597 2 -2 -1 
291 6 1 -1.00000000 129.10000610 462.02750397 -519.55600739 -142.47943115 2 -3 -1 
292 6 2 1.00000000 128.19999695 460.96920013 -519.71928406 -138.83850861 2 -3 -1 
293 6 1 -1.00000000 129.10000610 464.00222397 -518.11665344 -137.23432159 2 -2 -1 
294 6 2 1.00000000 128.19999695 466.74472046 -520.39896393 -136.05902863 2 -3 -1 
295 6 2 1.00000000 128.19999695 470.23599625 -519.33710480 -136.80584717 2 -3 -1 
296 6 2 1.00000000 128.19999695 473.02965927 -517.35631561 -135.90495300 2 -2 -1 
297 6 1 -1.00000000 129.10000610 474.21512604 -513.75077820 -136.08614349 2 -2 -1 
298 6 2 1.00000000 128.19999695 477.07966995 -512.90995026 -138.56058502 2 -2 -1 
299 6 1 -1.00000000 129.10000610 474.86914825 -511.27713013 -141.47536469 2 -2 -1 
300 6 2 1.00000000 128.19999695 474.93422318 -509.64065552 -145.07104492 2 -2 -1 
301 7 2 1.00000000 128.19999695 6.48394203 -47.39576340 -792.44672775 0 0 -4 
302 7 1 -1.00000000 129.10000610 3.84184313 -47.63514709 -789.87463379 0 0 -4 
303 7 2 1.00000000 128.19999695 0.75840420 -48.73444748 -788.05000305 0 0 -4 
304 7 2 1.00000000 128.19999695 -2.01869678 -48.51258087 -785.37001419 0 0 -4 
305 7 2 1.00000000 128.19999695 -2.30062199 -49.59584427 -781.72643280 0 0 -4 
306 7 1 -1.00000000 129.10000610 -0.86352098 -50.82785416 -778.35831070 0 0 -4 
307 7 2 1.00000000 128.19999695 0.10245089 -53.14868927 -775.28013992 0 0 -4 
308 7 1 -1.00000000 129.10000610 -2.65363574 -55.93611908 -774.57519150 0 0 -4 
309 7 1 -1.00000000 129.10000610 -6.26299334 -55.60487366 -774.20502090 0 0 -4 
310 7 1 -1.00000000 129.10000610 -9.10052013 -54.96581650 -772.15668106 0 0 -4 
311 7 2 1.00000000 128.19999695 -12.69888496 -57.29038239 -771.72752762 0 0 -4 
312 7 1 -1.00000000 129.10000610 -12.82400322 -60.10037613 -774.26211548 0 0 -4 
313 7 1 -1.00000000 129.10000610 -12.39795017 -63.91919708 -772.84943390 0 0 -4 
314 7 1 -1.00000000 129.10000610 -15.73177433 -65.25270081 -772.00694275 0 0 -4 
315 7 2 1.00000000 128.19999695 -18.71459961 -62.69365692 -772.29308319 0 0 -4 
316 7 2 1.00000000 128.19999695 -22.08801270 -61.81812668 -773.37158203 0 0 -4 
317 7 1 -1.00000000 129.10000610 -25.72558975 -61.36520767 -773.67831802 0 0 -4 
318 7 1 -1.00000000 129.10000610 -28.19517708 -63.94505692 -773.36421585 0 0 -4 
319 7 2 1.00000000 128.19999695 -30.34909630 -63.86101913 -770.38314438 0 0 -4 
320 7 1 -1.00000000 129.10000610 -33.86037827 -65.20678711 -771.18070984 0 0 -4 
321 7 1 -1.00000000 129.10000610 -35.70113373 -64.97520447 -774.26687241 0 0 -4 
322 7 1 -1.00000000 129.10000610 -36.19479370 -61.90552139 -776.14109039 0 0 -4 
323 7 2 1.00000000 128.19999695 -39.47361374 -59.24629593 -776.13012695 0 0 -4 
324 7 1 -1.00000000 129.10000610 -41.56208420 -57.26327515 -773.50969315 0 0 -4 
325 7 1 -1.00000000 129.10000610 -43.52656937 -57.84259033 -770.46300125 0 0 -4 
326 7 2 1.00000000 128.19999695 -41.71417618 -60.90632629 -769.18353653 0 0 -4 
327 7 2 1.00000000 128.19999695 -41.59632111 -64.39453125 -768.17278290 0 0 -4 
328 7 2 1.00000000 128.19999695 -40.79964447 -68.07520294 -766.86828613 0 0 -4 
329 7 2 1.00000000 128.19999695 -38.82233810 -71.20432281 -765.97359085 0 0 -4 
330 7 2 1.00000000 128.19999695 -37.90535736 -73.53118896 -769.09756470 0 0 -4 
331 7 1 -1.00000000 129.10000610 -37.34250259 -76.34973145 -771.64342880 0 0 -4 
332 7 1 -1.00000000 129.10000610 -35.59589005 -79.30760956 -769.92678070 0 0 -4 
333 7 1 -1.00000000 129.10000610 -35.20594025 -82.73188782 -771.87388992 0 0 -4 
334 7 2 1.00000000 128.19999695 -31.67328072 -84.10784149 -772.12214661 0 0 -4 
335 7 2 1.00000000 128.19999695 -28.82257271 -85.03057861 -774.05343246 0 0 -4 
336 7 2 1.00000000 128.19999695 -25.39984894 -83.15992737 -774.21807861 0 0 -4 
337 7 1 -1.00000000 129.10000610 -22.37825012 -80.91931152 -774.13583374 0 0 -4 
338 7 2 1.00000000 128.19999695 -22.39875221 -78.82382965 -771.04007721 0 0 -4 
339 7 1 -1.00000000 129.10000610 -23.38063049 -74.93661499 -771.14377213 0 0 -4 
340 7 1 -1.00000000 129.10000610 -21.18036461 -72.55550385 -768.73046112 0 0 -4 
341 7 1 -1.00000000 129.10000610 -18.46780205 -70.31557465 -767.63695526 0 0 -4 
342 7 2 1.00000000 128.19999695 -17.16416359 -68.83775330 -764.59649658 0 0 -4 
343 7 1 -1.00000000 129.10000610 -14.96624851 -66.07081604 -765.02899170 0 0 -4 
344 7 2 1.00000000 128.19999695 -11.74597740 -65.51239777 -766.48337936 0 0 -4 
345 7 2 1.00000000 128.19999695 -10.77190018 -69.13707733 -767.35190582 0 0 -4 
346 7 2 1.00000000 128.19999695 -10.66105747 -72.65431976 -765.72817230 0 0 -4 
347 7 1 -1.00000000 129.10000610 -8.17525387 -75.17138672 -764.03242493 0 0 -4 
348 7 2 1.00000000 128.19999695 -6.56232309 -77.93817902 -765.62520599 0 0 -4 
349 7 1 -1.00000000 129.10000610 -3.29693151 -76.67347717 -767.27280045 0 0 -4 
350 7 2 1.00000000 128.19999695 -0.31739286 -75.97906494 -764.90744019 0 0 -4 
351 8 2 1.00000000 128.19999695 11.03151989 -239.52388382 677.75684357 0 -1 3 
352 8 1 -1.00000000 129.10000610 13.36036301 -241.10296631 675.80069733 0 -1 3 
353 8 2 1.00000000 128.19999695 16.14431190 -239.03464890 673.53907394 0 -1 3 
354 8 2 1.00000000 128.19999695 18.03533936 -240.03392410 670.55388260 0 -1 3 
355 8 2 1.00000000 128.19999695 18.58720779 -238.66513443 667.35423279 0 -1 3 
356 8 1 -1.00000000 129.10000610 18.08054733 -235.04135323 668.13492584 0 -1 3 
357 8 2 1.00000000 128.19999695 19.59559822 -232.45051956 665.18633652 0 -1 3 
358 8 1 -1.00000000 129.10000610 22.39806366 -233.95014381 662.37368011 0 -1 3 
359 8 1 -1.00000000 129.10000610 19.84391975 -236.58085823 661.34489441 0 -1 3 
360 8 1 -1.00000000 129.10000610 19.66127396 -240.16838455 661.50481033 0 -1 3 
361 8 2 1.00000000 128.19999695 21.00835228 -243.62982559 660.40712738 0 -1 3 
362 8 1 -1.00000000 129.10000610 20.09892845 -245.89663315 657.73939896 0 -1 3 
363 8 1 -1.00000000 129.10000610 21.51357269 -248.55432129 655.21799088 0 -1 3 
364 8 1 -1.00000000 129.10000610 25.19805717 -249.21302414 654.69287872 0 -1 3 
365 8 2 1.00000000 128.19999695 28.64891052 -249.43461990 656.23211670 0 -1 3 
366 8 2 1.00000000 128.19999695 29.94834518 -245.58659744 655.55123520 0 -1 3 
367 8 1 -1.00000000 129.10000610 32.36637497 -244.75737000 657.89826202 0 -1 3 