ITEM: TIMESTEP
44000000 
ITEM: NUMBER OF ATOMS 
25000 
ITEM: BOX BOUNDS pp pp pp 
-103.678017 103.678017 
-103.678017 103.678017 
-103.678017 103.678017 
ITEM: ATOMS id mol type q mass xu yu zu ix iy iz 
1 1 2 1.00000000 128.19999695 546.20331573 -203.75020671 -277.72714233 3 -1 -1 
2 1 1 -1.00000000 129.10000610 546.11543274 -199.92324686 -277.75881195 3 -1 -1 
3 1 2 1.00000000 128.19999695 547.08524323 -199.00985336 -281.36994934 3 -1 -1 
4 1 2 1.00000000 128.19999695 543.61648560 -197.45239735 -282.22766113 3 -1 -1 
5 1 2 1.00000000 128.19999695 540.70381927 -200.19588566 -281.16830444 3 -1 -1 
6 1 1 -1.00000000 129.10000610 539.69453430 -201.57997847 -277.79830170 3 -1 -1 
7 1 2 1.00000000 128.19999695 538.85303497 -203.45484018 -274.41014862 3 -1 -1 
8 1 1 -1.00000000 129.10000610 539.34048462 -206.84031683 -273.49183655 3 -1 -1 
9 1 1 -1.00000000 129.10000610 541.55695343 -210.05470300 -273.68123627 3 -1 -1 
10 1 1 -1.00000000 129.10000610 539.16998291 -212.02724075 -271.39114380 3 -1 -1 
11 1 2 1.00000000 128.19999695 539.28654480 -214.63787699 -268.57600784 3 -1 -1 
12 1 1 -1.00000000 129.10000610 539.24408722 -217.50728703 -270.59358597 3 -1 -1 
13 1 1 -1.00000000 129.10000610 535.53391266 -217.20354176 -272.22280121 3 -1 -1 
14 1 1 -1.00000000 129.10000610 531.79961395 -216.29508972 -271.84505463 3 -1 -1 
15 1 2 1.00000000 128.19999695 530.44370270 -214.53812790 -268.65068817 3 -1 -1 
16 1 2 1.00000000 128.19999695 530.29940796 -213.35209084 -264.88560867 3 -1 -1 
17 1 1 -1.00000000 129.10000610 527.84523010 -215.88618851 -262.79117203 3 -1 -1 
18 1 1 -1.00000000 129.10000610 528.82495880 -213.88302135 -259.53401566 3 -1 -1 
19 1 2 1.00000000 128.19999695 530.64281464 -210.23256350 -259.25831223 3 -1 -1 
20 1 1 -1.00000000 129.10000610 532.44601440 -206.73139298 -259.74819946 3 -1 -1 
21 1 1 -1.00000000 129.10000610 532.32205200 -203.92462301 -257.97056580 3 -1 -1 
22 1 1 -1.00000000 129.10000610 531.98150635 -200.58433962 -258.75465775 3 -1 -1 
23 1 2 1.00000000 128.19999695 533.66062164 -199.99301672 -262.04306793 3 -1 -1 
24 1 1 -1.00000000 129.10000610 536.81169891 -197.51831341 -262.48083878 3 -1 -1 
25 1 1 -1.00000000 129.10000610 536.40519714 -193.72887230 -262.19853973 3 -1 -1 
26 1 2 1.00000000 128.19999695 539.77925873 -191.67139053 -261.81418228 3 -1 -1 
27 1 2 1.00000000 128.19999695 538.25903320 -188.12137794 -261.60065460 3 -1 -1 
28 1 2 1.00000000 128.19999695 540.92678070 -185.85552406 -262.28953552 3 -1 -1 
29 1 2 1.00000000 128.19999695 543.15113831 -182.55300331 -261.62435150 3 -1 -1 
30 1 2 1.00000000 128.19999695 546.32857513 -182.79732513 -263.97021103 3 -1 -1 
31 1 1 -1.00000000 129.10000610 548.42922211 -185.35176086 -262.01883316 3 -1 -1 
32 1 1 -1.00000000 129.10000610 548.02812958 -186.90122795 -258.50003815 3 -1 -1 
33 1 1 -1.00000000 129.10000610 548.27229309 -191.03194237 -259.25809479 3 -1 -1 
34 1 2 1.00000000 128.19999695 548.64060211 -193.58991814 -256.50730133 3 -1 -1 
35 1 2 1.00000000 128.19999695 552.43136597 -193.96731949 -255.88070297 3 -1 -1 
36 1 2 1.00000000 128.19999695 554.81876373 -195.16504002 -258.63595581 3 -1 -1 
37 1 1 -1.00000000 129.10000610 554.94594574 -198.29388905 -260.82944107 3 -1 -1 
38 1 2 1.00000000 128.19999695 553.30512238 -200.73819160 -263.07659149 3 -1 -1 
39 1 1 -1.00000000 129.10000610 550.78237915 -201.07013464 -265.95446396 3 -1 -1 
40 1 1 -1.00000000 129.10000610 547.38010406 -201.73772860 -263.68845749 3 -1 -1 
41 1 1 -1.00000000 129.10000610 544.30816650 -200.37796450 -261.96559525 3 -1 -1 
42 1 2 1.00000000 128.19999695 542.39904785 -199.09092617 -258.93562317 3 -1 -1 
43 1 1 -1.00000000 129.10000610 541.69798279 -201.36251211 -256.37395096 3 -1 -1 
44 1 2 1.00000000 128.19999695 541.65279388 -202.77811193 -252.63724899 3 -1 -1 
45 1 2 1.00000000 128.19999695 538.38491821 -204.96897078 -252.76666260 3 -1 -1 
46 1 2 1.00000000 128.19999695 535.60605621 -207.55930634 -253.49846268 3 -1 -1 
47 1 1 -1.00000000 129.10000610 536.07996368 -210.87025166 -251.84766769 3 -1 -1 
48 1 2 1.00000000 128.19999695 535.58026886 -213.42001390 -249.08664703 3 -1 -1 
49 1 1 -1.00000000 129.10000610 533.66433716 -216.54784966 -250.01123428 3 -1 -1 
50 1 2 1.00000000 128.19999695 531.14792633 -215.55043793 -253.19609833 3 -1 -1 
51 2 2 1.00000000 128.19999695 499.81492615 300.76921082 -375.48403931 2 1 -2 
52 2 1 -1.00000000 129.10000610 498.45236969 304.02334595 -374.33862686 2 1 -2 
53 2 2 1.00000000 128.19999695 500.45748901 307.05808258 -374.50971603 2 1 -2 
54 2 2 1.00000000 128.19999695 503.40827179 307.48440552 -376.94507599 2 1 -2 
55 2 2 1.00000000 128.19999695 507.32035065 307.06279755 -376.51663971 2 1 -2 
56 2 1 -1.00000000 129.10000610 508.48279572 307.41986847 -372.77864456 2 1 -2 
57 2 2 1.00000000 128.19999695 505.96971130 308.91120148 -370.16839981 2 1 -2 
58 2 1 -1.00000000 129.10000610 508.59455109 309.23070526 -367.06718826 2 1 -2 
59 2 1 -1.00000000 129.10000610 509.71822357 308.29485321 -363.51422882 2 1 -2 
60 2 1 -1.00000000 129.10000610 511.01737213 306.27265167 -360.42097855 2 1 -2 
61 2 2 1.00000000 128.19999695 512.46527100 304.14837646 -357.39214706 2 1 -2 
62 2 1 -1.00000000 129.10000610 515.86309052 303.60112000 -358.76572037 2 1 -2 
63 2 1 -1.00000000 129.10000610 517.01053619 299.80436707 -358.68994904 2 1 -2 
64 2 1 -1.00000000 129.10000610 515.63632202 297.01205444 -355.97436142 2 1 -2 
65 2 2 1.00000000 128.19999695 515.30514526 293.46521759 -354.42709732 2 1 -2 
66 2 2 1.00000000 128.19999695 515.35935211 289.65770721 -353.61363983 2 1 -2 
67 2 1 -1.00000000 129.10000610 515.35971069 289.65642548 -349.95280457 2 1 -2 
68 2 1 -1.00000000 129.10000610 516.27590179 292.04500580 -347.34423065 2 1 -2 
69 2 2 1.00000000 128.19999695 518.34796906 292.85414124 -344.17520905 2 1 -2 
70 2 1 -1.00000000 129.10000610 521.09860992 295.34072113 -344.05600739 3 1 -2 
71 2 1 -1.00000000 129.10000610 523.27733612 296.66950989 -341.69966125 3 1 -2 
72 2 1 -1.00000000 129.10000610 521.68172455 298.54624939 -339.21730042 3 1 -2 
73 2 2 1.00000000 128.19999695 523.14092255 300.08813477 -335.73702240 3 1 -2 
74 2 1 -1.00000000 129.10000610 526.93338776 301.01103210 -335.88892365 3 1 -2 
75 2 1 -1.00000000 129.10000610 530.00151825 299.81990814 -337.22888184 3 1 -2 
76 2 2 1.00000000 128.19999695 530.01097107 296.26344299 -335.68007660 3 1 -2 
77 2 2 1.00000000 128.19999695 533.73375702 295.50351715 -335.59718323 3 1 -2 
78 2 2 1.00000000 128.19999695 536.71089935 297.36125946 -334.87085724 3 1 -2 
79 2 2 1.00000000 128.19999695 539.59246063 299.71255493 -334.09539795 3 1 -2 
80 2 2 1.00000000 128.19999695 540.77207184 301.70220947 -331.37364197 3 1 -2 
81 2 1 -1.00000000 129.10000610 538.40032959 302.87148285 -328.85844421 3 1 -2 
82 2 1 -1.00000000 129.10000610 535.23500824 300.37676239 -328.64570618 3 1 -2 
83 2 1 -1.00000000 129.10000610 532.46848297 297.97762299 -330.14785767 3 1 -2 
84 2 2 1.00000000 128.19999695 530.08722687 298.63887024 -327.08274078 3 1 -2 
85 2 2 1.00000000 128.19999695 527.17715454 300.97774506 -327.79692841 3 1 -2 
86 2 2 1.00000000 128.19999695 525.39285278 303.99020386 -328.48495483 3 1 -2 
87 2 1 -1.00000000 129.10000610 525.64327240 307.99635315 -328.29069519 3 1 -2 
88 2 2 1.00000000 128.19999695 527.01101685 309.83794403 -325.51431274 3 1 -2 
89 2 1 -1.00000000 129.10000610 529.57466125 309.27462769 -322.88966370 3 1 -2 
90 2 1 -1.00000000 129.10000610 531.43721008 312.61124420 -322.05551147 3 2 -2 
91 2 1 -1.00000000 129.10000610 532.56603241 311.80751038 -318.61616516 3 2 -2 
92 2 2 1.00000000 128.19999695 532.62133026 314.10617828 -315.70354462 3 2 -2 
93 2 1 -1.00000000 129.10000610 536.31257629 315.31314850 -315.12017822 3 2 -2 
94 2 2 1.00000000 128.19999695 538.12979126 316.45294189 -318.03404999 3 2 -2 
95 2 2 1.00000000 128.19999695 536.89253235 317.11215210 -321.44071960 3 2 -2 
96 2 2 1.00000000 128.19999695 535.40325165 320.69822693 -322.18334198 3 2 -2 
97 2 1 -1.00000000 129.10000610 532.08838654 321.12358093 -324.03261566 3 2 -2 
98 2 2 1.00000000 128.19999695 530.50949097 323.68264771 -322.20630646 3 2 -2 
99 2 1 -1.00000000 129.10000610 529.73361969 325.81390381 -318.99066162 3 2 -2 
100 2 2 1.00000000 128.19999695 530.43669128 327.16366577 -315.49983215 3 2 -2 
101 3 2 1.00000000 128.19999695 301.30979919 -136.11297607 91.41612244 1 -1 0 
102 3 1 -1.00000000 129.10000610 302.20124054 -132.87264252 89.68393707 1 -1 0 
103 3 2 1.00000000 128.19999695 304.25746155 -129.92783356 88.19904327 1 -1 0 
104 3 2 1.00000000 128.19999695 304.37545013 -125.90276337 87.24096680 1 -1 0 
105 3 2 1.00000000 128.19999695 304.67251587 -126.42010498 83.30076599 1 -1 0 
106 3 1 -1.00000000 129.10000610 306.68628693 -123.64155579 82.19449615 1 -1 0 
107 3 2 1.00000000 128.19999695 308.04744720 -120.68016052 83.82595825 1 -1 0 
108 3 1 -1.00000000 129.10000610 310.06504822 -117.86894989 85.15072632 1 -1 0 
109 3 1 -1.00000000 129.10000610 313.70607758 -117.97472382 86.23456573 2 -1 0 
110 3 1 -1.00000000 129.10000610 314.70854950 -119.19535065 89.53444672 2 -1 0 
111 3 2 1.00000000 128.19999695 315.32154846 -116.62179565 92.56528473 2 -1 0 
112 3 1 -1.00000000 129.10000610 315.53442383 -118.34552765 96.02394867 2 -1 0 
113 3 1 -1.00000000 129.10000610 318.77541351 -115.94931030 96.93793488 2 -1 0 
114 3 1 -1.00000000 129.10000610 320.79801178 -112.61038208 96.97567749 2 -1 0 
115 3 2 1.00000000 128.19999695 319.32959747 -110.65299988 99.65824127 2 -1 0 
116 3 2 1.00000000 128.19999695 321.95142365 -109.31042480 101.99494934 2 -1 0 
117 3 1 -1.00000000 129.10000610 325.59265137 -108.47483826 101.35305786 2 -1 0 
118 3 1 -1.00000000 129.10000610 328.41963959 -108.96374512 103.45744324 2 -1 0 
119 3 2 1.00000000 128.19999695 329.66871643 -105.64161682 103.99053192 2 -1 1 
120 3 1 -1.00000000 129.10000610 331.39089203 -102.21399689 104.72046661 2 0 1 
121 3 1 -1.00000000 129.10000610 334.54979706 -101.64899445 102.99679565 2 0 0 
122 3 1 -1.00000000 129.10000610 335.89817810 -99.77258301 100.10315704 2 0 0 
123 3 2 1.00000000 128.19999695 337.44684601 -100.70249939 97.00141907 2 0 0 
124 3 1 -1.00000000 129.10000610 338.37242126 -104.18537903 95.20907593 2 -1 0 
125 3 1 -1.00000000 129.10000610 336.27709961 -104.58062744 92.14496613 2 -1 0 
126 3 2 1.00000000 128.19999695 333.70361328 -106.82881165 90.85370636 2 -1 0 
127 3 2 1.00000000 128.19999695 334.94448090 -110.08759308 91.96157074 2 -1 0 
128 3 2 1.00000000 128.19999695 335.62758636 -110.25054169 95.80823517 2 -1 0 
129 3 2 1.00000000 128.19999695 339.52420807 -110.86811066 96.56369019 2 -1 0 
130 3 2 1.00000000 128.19999695 342.72093201 -110.29994965 98.37680054 2 -1 0 
131 3 1 -1.00000000 129.10000610 344.54055786 -107.77986908 100.21849060 2 -1 0 
132 3 1 -1.00000000 129.10000610 347.33020782 -109.39545441 101.79271698 2 -1 0 
133 3 1 -1.00000000 129.10000610 350.00549316 -108.34938049 98.73179626 2 -1 0 
134 3 2 1.00000000 128.19999695 350.73651886 -109.61316681 95.24442291 2 -1 0 
135 3 2 1.00000000 128.19999695 350.51654816 -113.49313354 95.01644897 2 -1 0 
136 3 2 1.00000000 128.19999695 351.02732849 -116.32236481 92.67443085 2 -1 0 
137 3 1 -1.00000000 129.10000610 351.44949341 -120.30829620 92.58985901 2 -1 0 
138 3 2 1.00000000 128.19999695 351.01163101 -123.33847046 90.01477051 2 -1 0 
139 3 1 -1.00000000 129.10000610 352.49522400 -126.84957886 89.13845825 2 -1 0 
140 3 1 -1.00000000 129.10000610 352.41156769 -130.38201141 90.80769348 2 -1 0 
141 3 1 -1.00000000 129.10000610 354.32913589 -129.15487671 94.03683472 2 -1 0 
142 3 2 1.00000000 128.19999695 353.58672333 -127.42997742 97.36280823 2 -1 0 
143 3 1 -1.00000000 129.10000610 351.55599213 -127.42938232 100.42842102 2 -1 0 
144 3 2 1.00000000 128.19999695 349.68981934 -124.95752716 102.58303833 2 -1 0 
145 3 2 1.00000000 128.19999695 352.70486069 -123.27770233 104.87119293 2 -1 1 
146 3 2 1.00000000 128.19999695 355.88687134 -121.13078308 105.03293610 2 -1 1 
147 3 1 -1.00000000 129.10000610 356.93142319 -121.51420593 108.87146759 2 -1 1 
148 3 2 1.00000000 128.19999695 360.29684448 -121.69494629 110.26435852 2 -1 1 
149 3 1 -1.00000000 129.10000610 363.11702728 -121.25642395 112.71517944 2 -1 1 
150 3 2 1.00000000 128.19999695 365.08799744 -118.47911072 114.66890717 2 -1 1 
151 4 2 1.00000000 128.19999695 -289.84440613 361.84982681 0.13160932 -1 2 0 
152 4 1 -1.00000000 129.10000610 -293.76138306 361.28769684 0.18304476 -1 2 0 
153 4 2 1.00000000 128.19999695 -297.37010956 361.39643860 -1.59101593 -1 2 0 
154 4 2 1.00000000 128.19999695 -300.55535889 358.62001801 -1.44019341 -1 2 0 
155 4 2 1.00000000 128.19999695 -303.64784241 356.75673676 -1.12432659 -1 2 0 
156 4 1 -1.00000000 129.10000610 -306.28391266 357.88131714 -3.96946859 -1 2 0 
157 4 2 1.00000000 128.19999695 -310.00833893 358.62124634 -3.65311313 -1 2 0 
158 4 1 -1.00000000 129.10000610 -312.67047882 356.45229721 -2.60363531 -2 2 0 
159 4 1 -1.00000000 129.10000610 -315.81075287 358.28686905 -1.57990468 -2 2 0 
160 4 1 -1.00000000 129.10000610 -316.24336243 360.28619766 1.60302806 -2 2 0 
161 4 2 1.00000000 128.19999695 -314.75960541 362.09561539 4.52491426 -2 2 0 
162 4 1 -1.00000000 129.10000610 -316.94333649 364.22996521 7.07307291 -2 2 0 
163 4 1 -1.00000000 129.10000610 -314.83886719 367.25410843 8.30991936 -2 2 0 
164 4 1 -1.00000000 129.10000610 -315.05895996 369.68816757 4.93595028 -2 2 0 
165 4 2 1.00000000 128.19999695 -312.27503204 371.96373367 3.77345991 -2 2 0 
166 4 2 1.00000000 128.19999695 -308.73942566 371.26195145 3.68862152 -1 2 0 
167 4 1 -1.00000000 129.10000610 -306.44213104 368.73648071 2.60494256 -1 2 0 
168 4 1 -1.00000000 129.10000610 -304.71903992 364.88645172 2.81630516 -1 2 0 
169 4 2 1.00000000 128.19999695 -301.80118561 363.16567612 3.85281563 -1 2 0 
170 4 1 -1.00000000 129.10000610 -299.25610352 360.48330307 6.02733135 -1 2 0 
171 4 1 -1.00000000 129.10000610 -301.57279205 359.21221161 8.76838875 -1 2 0 
172 4 1 -1.00000000 129.10000610 -301.81553650 360.99021149 12.14165401 -1 2 0 
173 4 2 1.00000000 128.19999695 -301.00916290 364.34400177 13.31491184 -1 2 0 
174 4 1 -1.00000000 129.10000610 -299.51456451 364.07053757 16.78398323 -1 2 0 
175 4 1 -1.00000000 129.10000610 -296.99798584 362.52323914 19.07883644 -1 2 0 
176 4 2 1.00000000 128.19999695 -295.62802124 359.12989044 20.01794434 -1 2 0 
177 4 2 1.00000000 128.19999695 -295.83188629 355.30432510 20.67129326 -1 2 0 
178 4 2 1.00000000 128.19999695 -296.34252930 352.31234360 18.46546555 -1 2 0 
179 4 2 1.00000000 128.19999695 -296.60643768 352.39845276 14.57803345 -1 2 0 
180 4 2 1.00000000 128.19999695 -298.02590179 349.38660431 12.57183743 -1 2 0 
181 4 1 -1.00000000 129.10000610 -299.21356201 347.10092926 10.01011467 -1 2 0 
182 4 1 -1.00000000 129.10000610 -301.78681946 344.78325653 12.01225090 -1 2 0 
183 4 1 -1.00000000 129.10000610 -303.70475769 344.71098328 15.39711857 -1 2 0 
184 4 2 1.00000000 128.19999695 -301.32244110 343.15023804 17.92885590 -1 2 0 
185 4 2 1.00000000 128.19999695 -297.44198608 342.80979156 19.19901085 -1 2 0 
186 4 2 1.00000000 128.19999695 -293.76018524 342.75611115 17.37128830 -1 2 0 
187 4 1 -1.00000000 129.10000610 -293.92519379 341.56119537 13.92526245 -1 2 0 
188 4 2 1.00000000 128.19999695 -295.96792603 338.77445221 12.44590473 -1 2 0 
189 4 1 -1.00000000 129.10000610 -298.26596069 335.70684814 12.61851788 -1 2 0 
190 4 1 -1.00000000 129.10000610 -300.38735962 332.54454803 13.87713337 -1 2 0 
191 4 1 -1.00000000 129.10000610 -302.51913452 329.53872681 15.27542782 -1 2 0 
192 4 2 1.00000000 128.19999695 -306.12834167 328.58003235 15.19727802 -1 2 0 
193 4 1 -1.00000000 129.10000610 -308.97252655 328.54246521 17.84838295 -1 2 0 
194 4 2 1.00000000 128.19999695 -311.67810059 326.79535675 19.66473770 -2 2 0 
195 4 2 1.00000000 128.19999695 -314.15384674 329.47126007 21.14813042 -2 2 0 
196 4 2 1.00000000 128.19999695 -314.70322418 329.13871002 24.86145020 -2 2 0 
197 4 1 -1.00000000 129.10000610 -312.71491241 327.45378113 27.50514984 -2 2 0 
198 4 2 1.00000000 128.19999695 -310.76177216 328.41760254 30.72191429 -1 2 0 
199 4 1 -1.00000000 129.10000610 -307.69196320 330.17548370 29.49282265 -1 2 0 
200 4 2 1.00000000 128.19999695 -304.56845093 330.21703339 27.28929520 -1 2 0 
201 5 2 1.00000000 128.19999695 -348.14849091 -212.71508646 -251.62115860 -2 -1 -1 
202 5 1 -1.00000000 129.10000610 -349.77911377 -213.19715214 -248.40457535 -2 -1 -1 
203 5 2 1.00000000 128.19999695 -348.61605072 -210.84331322 -246.10116959 -2 -1 -1 
204 5 2 1.00000000 128.19999695 -349.38492584 -210.51633525 -242.30759811 -2 -1 -1 
205 5 2 1.00000000 128.19999695 -349.33094025 -207.54879242 -239.66962433 -2 -1 -1 
206 5 1 -1.00000000 129.10000610 -348.42576599 -207.16060479 -236.11259460 -2 -1 -1 
207 5 2 1.00000000 128.19999695 -350.46146393 -210.11963916 -234.32703972 -2 -1 -1 
208 5 1 -1.00000000 129.10000610 -349.48172760 -213.51267385 -234.87303352 -2 -1 -1 
209 5 1 -1.00000000 129.10000610 -350.28402710 -217.11937904 -235.11110306 -2 -1 -1 
210 5 1 -1.00000000 129.10000610 -352.03653336 -220.27760506 -235.45656013 -2 -1 -1 
211 5 2 1.00000000 128.19999695 -352.84548950 -223.94720840 -236.32696724 -2 -1 -1 
212 5 1 -1.00000000 129.10000610 -356.20231247 -226.15723610 -235.17331314 -2 -1 -1 
213 5 1 -1.00000000 129.10000610 -359.58917236 -226.45820236 -236.68761635 -2 -1 -1 
214 5 1 -1.00000000 129.10000610 -362.90988541 -224.37628555 -236.30345917 -2 -1 -1 
215 5 2 1.00000000 128.19999695 -363.36602783 -221.42322063 -238.73949051 -2 -1 -1 
216 5 2 1.00000000 128.19999695 -364.23868561 -217.91024685 -240.02145386 -2 -1 -1 
217 5 1 -1.00000000 129.10000610 -364.03789520 -218.21472073 -244.16810989 -2 -1 -1 
218 5 1 -1.00000000 129.10000610 -362.98529434 -214.62173033 -245.58761597 -2 -1 -1 
219 5 2 1.00000000 128.19999695 -360.23059082 -212.39299917 -243.93392181 -2 -1 -1 
220 5 1 -1.00000000 129.10000610 -358.96005630 -208.93848610 -242.85558319 -2 -1 -1 
221 5 1 -1.00000000 129.10000610 -358.24438858 -205.38839507 -242.84657288 -2 -1 -1 
222 5 1 -1.00000000 129.10000610 -358.25291443 -201.55124235 -243.86511230 -2 -1 -1 
223 5 2 1.00000000 128.19999695 -361.83531570 -201.58722544 -245.58367538 -2 -1 -1 
224 5 1 -1.00000000 129.10000610 -363.76772690 -202.11571884 -249.11475754 -2 -1 -1 
225 5 1 -1.00000000 129.10000610 -366.95039368 -203.73509097 -249.58211899 -2 -1 -1 
226 5 2 1.00000000 128.19999695 -370.80268860 -203.81253791 -249.97965622 -2 -1 -1 
227 5 2 1.00000000 128.19999695 -372.51214981 -207.23572780 -249.63414383 -2 -1 -1 
228 5 2 1.00000000 128.19999695 -376.29576492 -206.72718871 -250.15594482 -2 -1 -1 
229 5 2 1.00000000 128.19999695 -376.67646408 -207.38669075 -253.82343292 -2 -1 -1 
230 5 2 1.00000000 128.19999695 -376.90703583 -208.07839400 -257.60139847 -2 -1 -1 
231 5 1 -1.00000000 129.10000610 -376.08300400 -206.28054774 -260.99605560 -2 -1 -1 
232 5 1 -1.00000000 129.10000610 -372.63351059 -208.17125607 -262.41747284 -2 -1 -1 
233 5 1 -1.00000000 129.10000610 -371.80463028 -211.93795109 -262.00767136 -2 -1 -1 
234 5 2 1.00000000 128.19999695 -368.19494247 -212.29259872 -261.53256226 -2 -1 -1 
235 5 2 1.00000000 128.19999695 -366.10585022 -215.26088190 -262.06522369 -2 -1 -1 
236 5 2 1.00000000 128.19999695 -367.11780167 -218.89347839 -261.93623352 -2 -1 -1 
237 5 1 -1.00000000 129.10000610 -366.95472717 -220.64426327 -258.20400620 -2 -1 -1 
238 5 2 1.00000000 128.19999695 -364.67687607 -219.36614704 -255.68311691 -2 -1 -1 
239 5 1 -1.00000000 129.10000610 -361.62271881 -218.36147690 -257.52976990 -2 -1 -1 
240 5 1 -1.00000000 129.10000610 -359.15658188 -220.36709690 -255.67090988 -2 -1 -1 
241 5 1 -1.00000000 129.10000610 -359.23674393 -219.23602581 -252.18345261 -2 -1 -1 
242 5 2 1.00000000 128.19999695 -360.13654327 -221.24593544 -249.17710114 -2 -1 -1 
243 5 1 -1.00000000 129.10000610 -360.57194519 -223.34235287 -245.61257935 -2 -1 -1 
244 5 2 1.00000000 128.19999695 -359.20353699 -226.58864975 -244.57693481 -2 -1 -1 
245 5 2 1.00000000 128.19999695 -361.01488876 -229.75679016 -244.53843689 -2 -1 -1 
246 5 2 1.00000000 128.19999695 -364.65295029 -228.88353920 -245.48356628 -2 -1 -1 
247 5 1 -1.00000000 129.10000610 -366.98657608 -226.46148491 -243.64201355 -2 -1 -1 
248 5 2 1.00000000 128.19999695 -370.82337952 -226.89687157 -243.24340820 -2 -1 -1 
249 5 1 -1.00000000 129.10000610 -371.57533264 -227.60494232 -239.34243965 -2 -1 -1 
250 5 2 1.00000000 128.19999695 -373.86148453 -229.72574043 -236.66202545 -2 -1 -1 
251 6 2 1.00000000 128.19999695 470.99797821 -447.45286560 -197.10736465 2 -2 -1 
252 6 1 -1.00000000 129.10000610 469.23739624 -447.36647415 -193.63849449 2 -2 -1 
253 6 2 1.00000000 128.19999695 471.26528168 -448.04977036 -190.56647873 2 -2 -1 
254 6 2 1.00000000 128.19999695 472.90048218 -450.80980301 -188.71299553 2 -2 -1 
255 6 2 1.00000000 128.19999695 472.50009537 -452.70770645 -185.64133644 2 -2 -1 
256 6 1 -1.00000000 129.10000610 472.03039551 -453.89569092 -182.23960876 2 -2 -1 
257 6 2 1.00000000 128.19999695 469.33950043 -454.51725388 -179.49980354 2 -2 -1 
258 6 1 -1.00000000 129.10000610 465.69948196 -455.57009506 -179.11852646 2 -2 -1 
259 6 1 -1.00000000 129.10000610 465.50849533 -459.11430359 -178.52681541 2 -2 -1 
260 6 1 -1.00000000 129.10000610 466.38554382 -463.01300430 -178.30198860 2 -2 -1 
261 6 2 1.00000000 128.19999695 465.07495499 -466.11886597 -177.35263062 2 -2 -1 
262 6 1 -1.00000000 129.10000610 462.98398209 -466.85827255 -174.35832596 2 -2 -1 
263 6 1 -1.00000000 129.10000610 465.15977859 -468.27080154 -171.02529144 2 -2 -1 
264 6 1 -1.00000000 129.10000610 466.65233994 -465.13943863 -169.73822021 2 -2 -1 
265 6 2 1.00000000 128.19999695 468.59305573 -461.81914139 -170.04560089 2 -2 -1 
266 6 2 1.00000000 128.19999695 468.01450729 -458.49467850 -171.94285965 2 -2 -1 
267 6 1 -1.00000000 129.10000610 466.97961426 -455.73232651 -169.07674026 2 -2 -1 
268 6 1 -1.00000000 129.10000610 468.38733292 -454.85823059 -165.83237076 2 -2 -1 
269 6 2 1.00000000 128.19999695 467.83815384 -455.02903748 -162.22078323 2 -2 -1 
270 6 1 -1.00000000 129.10000610 466.07744598 -453.57759094 -159.36376572 2 -2 -1 
271 6 1 -1.00000000 129.10000610 466.01618958 -450.87824249 -156.81425095 2 -2 -1 
272 6 1 -1.00000000 129.10000610 469.25823975 -448.71816635 -156.91204071 2 -2 -1 
273 6 2 1.00000000 128.19999695 468.42074585 -445.48764229 -154.78905487 2 -2 -1 
274 6 1 -1.00000000 129.10000610 468.04379272 -442.39096069 -156.87433243 2 -2 -1 
275 6 1 -1.00000000 129.10000610 464.28135681 -441.64850044 -156.72145081 2 -2 -1 
276 6 2 1.00000000 128.19999695 461.57977295 -444.87907219 -156.41207504 2 -2 -1 
277 6 2 1.00000000 128.19999695 458.61833191 -445.55298805 -158.63240433 2 -2 -1 
278 6 2 1.00000000 128.19999695 454.90787506 -445.02235985 -158.50099182 2 -2 -1 
279 6 2 1.00000000 128.19999695 452.36928177 -447.67653275 -157.16076279 2 -2 -1 
280 6 2 1.00000000 128.19999695 450.49475861 -448.99000549 -154.32838821 2 -2 -1 
281 6 1 -1.00000000 129.10000610 447.21747589 -448.43980789 -153.17463303 2 -2 -1 
282 6 1 -1.00000000 129.10000610 445.54117584 -444.99209785 -153.42876053 2 -2 -1 
283 6 1 -1.00000000 129.10000610 441.63572693 -444.62309074 -154.27741623 2 -2 -1 
284 6 2 1.00000000 128.19999695 437.75918579 -445.20251846 -153.94370270 2 -2 -1 
285 6 2 1.00000000 128.19999695 436.86374474 -448.72538757 -152.43778610 2 -2 -1 
286 6 2 1.00000000 128.19999695 435.79306412 -452.19622421 -151.13789368 2 -2 -1 
287 6 1 -1.00000000 129.10000610 437.69598961 -453.17246246 -148.14823532 2 -2 -1 
288 6 2 1.00000000 128.19999695 440.97103691 -454.22134018 -147.00831985 2 -2 -1 
289 6 1 -1.00000000 129.10000610 441.95227814 -457.99518585 -145.73251724 2 -2 -1 
290 6 1 -1.00000000 129.10000610 444.83794594 -460.72072983 -146.85588837 2 -2 -1 
291 6 1 -1.00000000 129.10000610 443.57772064 -463.85219193 -145.80583954 2 -2 -1 
292 6 2 1.00000000 128.19999695 444.52015305 -465.50028610 -142.27496338 2 -2 -1 
293 6 1 -1.00000000 129.10000610 440.60340881 -465.57226944 -141.54252625 2 -2 -1 
294 6 2 1.00000000 128.19999695 437.69518661 -466.71934128 -142.66983032 2 -2 -1 
295 6 2 1.00000000 128.19999695 437.33841515 -470.29788208 -143.93903732 2 -2 -1 
296 6 2 1.00000000 128.19999695 437.20772362 -472.99573517 -141.11463165 2 -2 -1 
297 6 1 -1.00000000 129.10000610 440.20644760 -473.28463364 -138.42356110 2 -2 -1 
298 6 2 1.00000000 128.19999695 443.17233658 -475.70666122 -138.01277924 2 -2 -1 
299 6 1 -1.00000000 129.10000610 446.03994370 -476.65766144 -135.40227509 2 -2 -1 
300 6 2 1.00000000 128.19999695 449.80366135 -477.54931259 -136.43687439 2 -2 -1 
301 7 2 1.00000000 128.19999695 17.47978592 -42.28656006 -789.84528732 0 0 -4 
302 7 1 -1.00000000 129.10000610 19.33799362 -40.89916611 -793.39374924 0 0 -4 
303 7 2 1.00000000 128.19999695 18.00884628 -40.16268539 -796.68997192 0 0 -4 
304 7 2 1.00000000 128.19999695 19.48862839 -36.81355286 -797.28226471 0 0 -4 
305 7 2 1.00000000 128.19999695 18.69907379 -33.23719025 -796.46346283 0 0 -4 
306 7 1 -1.00000000 129.10000610 15.21209240 -32.26035309 -797.74058723 0 0 -4 
307 7 2 1.00000000 128.19999695 12.79485321 -35.10272217 -798.35514259 0 0 -4 
308 7 1 -1.00000000 129.10000610 9.83360100 -36.11169052 -796.20568466 0 0 -4 
309 7 1 -1.00000000 129.10000610 6.82315779 -37.89203644 -794.85976410 0 0 -4 
310 7 1 -1.00000000 129.10000610 4.98655796 -38.97972870 -792.48752975 0 0 -4 
311 7 2 1.00000000 128.19999695 5.43052626 -42.79761124 -791.50186920 0 0 -4 
312 7 1 -1.00000000 129.10000610 9.11056995 -43.57715225 -791.27391052 0 0 -4 
313 7 1 -1.00000000 129.10000610 10.44983864 -44.52415848 -787.91039276 0 0 -4 
314 7 1 -1.00000000 129.10000610 12.20908165 -45.72956467 -784.81949615 0 0 -4 
315 7 2 1.00000000 128.19999695 14.30109406 -47.01425934 -781.78064728 0 0 -4 
316 7 2 1.00000000 128.19999695 15.80114079 -46.48344040 -778.52167892 0 0 -4 
317 7 1 -1.00000000 129.10000610 18.26504898 -45.36825562 -776.38730621 0 0 -4 
318 7 1 -1.00000000 129.10000610 21.85395622 -43.23641968 -776.92256927 0 0 -4 
319 7 2 1.00000000 128.19999695 22.27556992 -43.96126556 -780.64636993 0 0 -4 
320 7 1 -1.00000000 129.10000610 21.90473366 -42.49919891 -784.12982559 0 0 -4 
321 7 1 -1.00000000 129.10000610 21.75213623 -38.72242355 -783.15560150 0 0 -4 
322 7 1 -1.00000000 129.10000610 22.20470619 -35.99437332 -785.85243225 0 0 -4 
323 7 2 1.00000000 128.19999695 20.73249435 -36.69161224 -789.42981339 0 0 -4 
324 7 1 -1.00000000 129.10000610 17.76031876 -34.63982010 -790.72443008 0 0 -4 
325 7 1 -1.00000000 129.10000610 14.85098839 -35.95825958 -789.05739594 0 0 -4 
326 7 2 1.00000000 128.19999695 11.58651447 -35.17071915 -790.08250427 0 0 -4 
327 7 2 1.00000000 128.19999695 8.87379456 -35.10235596 -787.50634003 0 0 -4 
328 7 2 1.00000000 128.19999695 8.14685059 -37.22197723 -784.58517838 0 0 -4 
329 7 2 1.00000000 128.19999695 10.41056919 -39.34880829 -782.65020370 0 0 -4 
330 7 2 1.00000000 128.19999695 14.29418278 -39.05197144 -783.37227249 0 0 -4 
331 7 1 -1.00000000 129.10000610 15.37914848 -40.88867950 -780.36826324 0 0 -4 
332 7 1 -1.00000000 129.10000610 14.22620964 -40.39111710 -776.52049255 0 0 -4 
333 7 1 -1.00000000 129.10000610 14.90310669 -42.12036514 -773.04404068 0 0 -4 
334 7 2 1.00000000 128.19999695 16.79400826 -42.90933228 -769.65981293 0 0 -4 
335 7 2 1.00000000 128.19999695 14.88182545 -42.34961319 -766.53263474 0 0 -4 
336 7 2 1.00000000 128.19999695 11.18769932 -42.32476044 -765.95804977 0 0 -4 
337 7 1 -1.00000000 129.10000610 9.91232872 -46.00170135 -766.51872253 0 0 -4 
338 7 2 1.00000000 128.19999695 7.21122599 -48.26895142 -766.92055511 0 0 -4 
339 7 1 -1.00000000 129.10000610 6.38415766 -51.98222351 -766.47412491 0 0 -4 
340 7 1 -1.00000000 129.10000610 5.87784481 -53.49534988 -770.06259537 0 0 -4 
341 7 1 -1.00000000 129.10000610 7.31121731 -56.99628067 -770.65553665 0 0 -4 
342 7 2 1.00000000 128.19999695 4.37174177 -59.08057404 -769.66513443 0 0 -4 
343 7 1 -1.00000000 129.10000610 2.42341709 -61.12728500 -772.38699722 0 0 -4 
344 7 2 1.00000000 128.19999695 3.01740098 -64.92903137 -771.55772400 0 0 -4 
345 7 2 1.00000000 128.19999695 2.49685454 -68.13140869 -769.44412994 0 0 -4 
346 7 2 1.00000000 128.19999695 0.65706140 -68.81265259 -765.96990967 0 0 -4 
347 7 1 -1.00000000 129.10000610 1.02172339 -72.05268097 -763.66945648 0 0 -4 
348 7 2 1.00000000 128.19999695 -2.12243867 -73.36112976 -761.69415283 0 0 -4 
349 7 1 -1.00000000 129.10000610 -1.54319942 -70.09883118 -759.18235779 0 0 -4 
350 7 2 1.00000000 128.19999695 -2.28507280 -66.71264648 -757.44279480 0 0 -4 
351 8 2 1.00000000 128.19999695 14.64208603 -257.22299194 635.03357029 0 -1 3 
352 8 1 -1.00000000 129.10000610 10.98949909 -256.84663391 636.34898186 0 -1 3 
353 8 2 1.00000000 128.19999695 8.62440014 -258.54849243 634.15807438 0 -1 3 
354 8 2 1.00000000 128.19999695 6.68147373 -256.90954590 631.52767944 0 -1 3 
355 8 2 1.00000000 128.19999695 4.27762794 -253.62583160 631.04892063 0 -1 3 
356 8 1 -1.00000000 129.10000610 3.24819708 -252.78660965 627.60458660 0 -1 3 
357 8 2 1.00000000 128.19999695 5.35406780 -249.69070816 626.53885746 0 -1 3 
358 8 1 -1.00000000 129.10000610 9.03186035 -250.57210922 627.44781876 0 -1 3 
359 8 1 -1.00000000 129.10000610 10.97952175 -252.23583603 630.05949450 0 -1 3 
360 8 1 -1.00000000 129.10000610 13.95790386 -250.89520264 631.67792797 0 -1 3 
361 8 2 1.00000000 128.19999695 16.12890625 -249.27361298 629.20525742 0 -1 3 
362 8 1 -1.00000000 129.10000610 19.80233192 -248.31755829 630.29798985 0 -1 3 
363 8 1 -1.00000000 129.10000610 22.22543144 -246.00956345 628.44311666 0 -1 3 
364 8 1 -1.00000000 129.10000610 22.85449791 -245.79068756 624.77922463 0 -1 3 
365 8 2 1.00000000 128.19999695 24.98758125 -242.05003357 624.24941897 0 -1 3 
366 8 2 1.00000000 128.19999695 28.64012146 -242.42419434 625.52153254 0 -1 3 
367 8 1 -1.00000000 129.10000610 31.70763016 -242.65372086 623.61015308 0 -1 3 
368 8 1 -1.00000000 129.10000610 33.72855759 -239.24316025 623.26189923 0 -1 3 