ITEM: TIMESTEP
44550000 
ITEM: NUMBER OF ATOMS 
25000 
ITEM: BOX BOUNDS pp pp pp 
-103.678017 103.678017 
-103.678017 103.678017 
-103.678017 103.678017 
ITEM: ATOMS id mol type q mass xu yu zu ix iy iz 
1 1 2 1.00000000 128.19999695 568.49901581 -192.63987541 -233.84630013 3 -1 -1 
2 1 1 -1.00000000 129.10000610 564.77875137 -192.06754780 -234.32337761 3 -1 -1 
3 1 2 1.00000000 128.19999695 562.21312714 -194.34780788 -233.16398621 3 -1 -1 
4 1 2 1.00000000 128.19999695 558.58926773 -193.90724087 -232.15517235 3 -1 -1 
5 1 2 1.00000000 128.19999695 555.85539246 -191.38300419 -231.74604607 3 -1 -1 
6 1 1 -1.00000000 129.10000610 552.58276367 -191.95712471 -229.36062622 3 -1 -1 
7 1 2 1.00000000 128.19999695 552.16551208 -188.45710373 -227.48173332 3 -1 -1 
8 1 1 -1.00000000 129.10000610 552.01102448 -184.96442604 -228.94634056 3 -1 -1 
9 1 1 -1.00000000 129.10000610 555.90559387 -184.15954018 -228.96058655 3 -1 -1 
10 1 1 -1.00000000 129.10000610 556.87750244 -180.63093376 -228.09702873 3 -1 -1 
11 1 2 1.00000000 128.19999695 557.60811615 -178.77286911 -224.57885933 3 -1 -1 
12 1 1 -1.00000000 129.10000610 556.65625000 -176.77386284 -221.46589088 3 -1 -1 
13 1 1 -1.00000000 129.10000610 557.44654083 -178.05228233 -217.63035774 3 -1 -1 
14 1 1 -1.00000000 129.10000610 556.42065430 -177.88278389 -214.17145109 3 -1 -1 
15 1 2 1.00000000 128.19999695 552.88038635 -177.57377434 -213.20445204 3 -1 -1 
16 1 2 1.00000000 128.19999695 551.28102875 -180.76036835 -211.77641439 3 -1 -1 
17 1 1 -1.00000000 129.10000610 547.53308868 -182.57087326 -212.69183159 3 -1 -1 
18 1 1 -1.00000000 129.10000610 544.72778320 -181.31265259 -214.70185089 3 -1 -1 
19 1 2 1.00000000 128.19999695 543.02119446 -183.29862213 -217.56900597 3 -1 -1 
20 1 1 -1.00000000 129.10000610 544.32652283 -187.08255196 -217.34611511 3 -1 -1 
21 1 1 -1.00000000 129.10000610 547.60442352 -189.19305038 -217.10440159 3 -1 -1 
22 1 1 -1.00000000 129.10000610 548.95621490 -190.82538986 -219.87840843 3 -1 -1 
23 1 2 1.00000000 128.19999695 547.32106781 -194.21970463 -220.31500053 3 -1 -1 
24 1 1 -1.00000000 129.10000610 545.65158844 -196.33979416 -217.13969326 3 -1 -1 
25 1 1 -1.00000000 129.10000610 542.41772461 -198.08788204 -216.37580109 3 -1 -1 
26 1 2 1.00000000 128.19999695 539.12695312 -196.94285583 -214.62694168 3 -1 -1 
27 1 2 1.00000000 128.19999695 537.36595917 -195.12248611 -217.42604256 3 -1 -1 
28 1 2 1.00000000 128.19999695 537.57729340 -196.44484806 -221.12247849 3 -1 -1 
29 1 2 1.00000000 128.19999695 539.84074402 -195.91573620 -224.24251938 3 -1 -1 
30 1 2 1.00000000 128.19999695 543.10891724 -197.89977551 -225.19291687 3 -1 -1 
31 1 1 -1.00000000 129.10000610 545.35536957 -195.41746426 -226.99487305 3 -1 -1 
32 1 1 -1.00000000 129.10000610 544.40215302 -192.00254154 -227.37106514 3 -1 -1 
33 1 1 -1.00000000 129.10000610 542.04463959 -191.61286163 -230.79088211 3 -1 -1 
34 1 2 1.00000000 128.19999695 538.58481598 -192.02694035 -232.67960358 3 -1 -1 
35 1 2 1.00000000 128.19999695 536.53552246 -192.76650238 -235.60604095 3 -1 -1 
36 1 2 1.00000000 128.19999695 533.08283997 -191.16233826 -235.79205704 3 -1 -1 
37 1 1 -1.00000000 129.10000610 530.67594910 -193.66791630 -237.36676788 3 -1 -1 
38 1 2 1.00000000 128.19999695 532.00704956 -196.04190636 -240.08646774 3 -1 -1 
39 1 1 -1.00000000 129.10000610 532.94970703 -197.63358021 -243.60280991 3 -1 -1 
40 1 1 -1.00000000 129.10000610 532.36840820 -200.69956350 -245.88101959 3 -1 -1 
41 1 1 -1.00000000 129.10000610 533.04666138 -204.02025628 -248.03318405 3 -1 -1 
42 1 2 1.00000000 128.19999695 534.96434021 -206.73946148 -246.03517532 3 -1 -1 
43 1 1 -1.00000000 129.10000610 534.82264709 -210.12558866 -247.92728043 3 -1 -1 
44 1 2 1.00000000 128.19999695 534.09347534 -213.39113569 -250.06861115 3 -1 -1 
45 1 2 1.00000000 128.19999695 537.25684357 -215.45571804 -250.71339035 3 -1 -1 
46 1 2 1.00000000 128.19999695 541.29687500 -216.24340153 -251.62422180 3 -1 -1 
47 1 1 -1.00000000 129.10000610 544.94742584 -215.68671417 -252.45272446 3 -1 -1 
48 1 2 1.00000000 128.19999695 546.65869141 -212.36036873 -252.39429092 3 -1 -1 
49 1 1 -1.00000000 129.10000610 545.90905762 -209.45699382 -249.74624252 3 -1 -1 
50 1 2 1.00000000 128.19999695 542.74240875 -209.21720076 -247.37096024 3 -1 -1 
51 2 2 1.00000000 128.19999695 574.03738403 325.80893707 -253.32989502 3 2 -1 
52 2 1 -1.00000000 129.10000610 570.10469055 326.91216278 -253.31655502 3 2 -1 
53 2 2 1.00000000 128.19999695 567.39343643 325.35764313 -250.62023163 3 2 -1 
54 2 2 1.00000000 128.19999695 563.58675385 326.30146790 -251.02155685 3 2 -1 
55 2 2 1.00000000 128.19999695 560.24588394 323.78719330 -251.09535599 3 2 -1 
56 2 1 -1.00000000 129.10000610 561.90681076 320.31932831 -252.37828827 3 2 -1 
57 2 2 1.00000000 128.19999695 563.02769470 319.88059235 -255.98398209 3 2 -1 
58 2 1 -1.00000000 129.10000610 563.72409821 323.60816956 -257.00570297 3 2 -1 
59 2 1 -1.00000000 129.10000610 565.85574722 325.52734375 -259.29758453 3 2 -1 
60 2 1 -1.00000000 129.10000610 566.60475922 325.33853912 -263.32538223 3 2 -1 
61 2 2 1.00000000 128.19999695 568.59823608 326.12145233 -266.68301010 3 2 -1 
62 2 1 -1.00000000 129.10000610 569.59387207 325.82096100 -270.28614807 3 2 -1 
63 2 1 -1.00000000 129.10000610 570.66893768 328.84493256 -272.22503662 3 2 -1 
64 2 1 -1.00000000 129.10000610 573.44120407 329.49469757 -274.32520294 3 2 -1 
65 2 2 1.00000000 128.19999695 576.80870438 330.32955170 -276.14507294 3 2 -1 
66 2 2 1.00000000 128.19999695 576.66981506 333.77017212 -274.39888000 3 2 -1 
67 2 1 -1.00000000 129.10000610 580.14243317 333.94619751 -272.64954376 3 2 -1 
68 2 1 -1.00000000 129.10000610 579.19012451 332.35374451 -269.43401337 3 2 -1 
69 2 2 1.00000000 128.19999695 580.64714432 331.34896088 -266.08615494 3 2 -1 
70 2 1 -1.00000000 129.10000610 582.50270844 328.43714142 -264.33771133 3 2 -1 
71 2 1 -1.00000000 129.10000610 586.02124405 327.20335388 -263.70563507 3 2 -1 
72 2 1 -1.00000000 129.10000610 589.38022995 326.30851746 -261.85902023 3 2 -1 
73 2 2 1.00000000 128.19999695 592.75472260 325.00997925 -261.14809036 3 2 -1 
74 2 1 -1.00000000 129.10000610 593.39349556 322.32832336 -258.85010529 3 2 -1 
75 2 1 -1.00000000 129.10000610 596.58466721 320.32842255 -258.43582535 3 2 -1 
76 2 2 1.00000000 128.19999695 594.93061256 317.01436615 -259.55387878 3 2 -1 
77 2 2 1.00000000 128.19999695 594.31614685 312.91807556 -259.65948486 3 2 -1 
78 2 2 1.00000000 128.19999695 591.66905975 310.93575287 -261.07526398 3 1 -1 
79 2 2 1.00000000 128.19999695 589.19901276 309.72467041 -258.31822968 3 1 -1 
80 2 2 1.00000000 128.19999695 586.02449036 311.93492126 -257.61108780 3 2 -1 
81 2 1 -1.00000000 129.10000610 585.02549362 313.07870483 -254.20270157 3 2 -1 
82 2 1 -1.00000000 129.10000610 588.45782471 311.62410736 -252.22003555 3 2 -1 
83 2 1 -1.00000000 129.10000610 587.84137726 307.86624908 -251.50637817 3 1 -1 
84 2 2 1.00000000 128.19999695 590.80117035 305.79206085 -251.20690536 3 1 -1 
85 2 2 1.00000000 128.19999695 594.56815147 305.62996674 -252.21460342 3 1 -1 
86 2 2 1.00000000 128.19999695 597.52600288 303.62639618 -252.75648117 3 1 -1 
87 2 1 -1.00000000 129.10000610 600.33521461 301.32756805 -252.88991165 3 1 -1 
88 2 2 1.00000000 128.19999695 603.07693672 298.78247070 -253.57456207 3 1 -1 
89 2 1 -1.00000000 129.10000610 605.57753181 296.44506836 -255.04727173 3 1 -1 
90 2 1 -1.00000000 129.10000610 605.63606644 297.55895233 -258.73516464 3 1 -1 
91 2 1 -1.00000000 129.10000610 605.89154243 301.12876129 -259.88604355 3 1 -1 
92 2 2 1.00000000 128.19999695 609.36958027 302.63211060 -261.27883911 3 1 -1 
93 2 1 -1.00000000 129.10000610 612.65626812 301.10152435 -261.72151566 3 1 -1 
94 2 2 1.00000000 128.19999695 614.76607370 299.71485901 -259.32646942 3 1 -1 
95 2 2 1.00000000 128.19999695 614.32846594 299.76638794 -255.92531967 3 1 -1 
96 2 2 1.00000000 128.19999695 611.87861538 297.81466675 -253.20717621 3 1 -1 
97 2 1 -1.00000000 129.10000610 612.71181011 295.88877869 -249.70032883 3 1 -1 
98 2 2 1.00000000 128.19999695 614.00711250 296.09020996 -246.13161087 3 1 -1 
99 2 1 -1.00000000 129.10000610 617.36362791 297.23622131 -243.96069717 3 1 -1 
100 2 2 1.00000000 128.19999695 617.98210287 298.04449463 -240.26053238 3 1 -1 
101 3 2 1.00000000 128.19999695 294.11227417 -102.48828888 60.90629959 1 0 0 
102 3 1 -1.00000000 129.10000610 295.86198425 -103.60684967 64.10601044 1 0 0 
103 3 2 1.00000000 128.19999695 298.83737183 -101.99814606 66.51338959 1 0 0 
104 3 2 1.00000000 128.19999695 301.95954895 -103.98492432 66.92562103 1 -1 0 
105 3 2 1.00000000 128.19999695 303.85156250 -106.97702789 65.64316559 1 -1 0 
106 3 1 -1.00000000 129.10000610 306.40517426 -109.62151337 64.82546234 1 -1 0 
107 3 2 1.00000000 128.19999695 310.19009399 -110.70642090 65.51266479 1 -1 0 
108 3 1 -1.00000000 129.10000610 310.60605621 -114.93058014 64.95036316 1 -1 0 
109 3 1 -1.00000000 129.10000610 313.06898499 -117.42914581 67.09353638 2 -1 0 
110 3 1 -1.00000000 129.10000610 315.76030731 -115.79027557 69.19522095 2 -1 0 
111 3 2 1.00000000 128.19999695 319.46980286 -114.75434875 69.31141663 2 -1 0 
112 3 1 -1.00000000 129.10000610 321.95807648 -114.26242065 72.24424744 2 -1 0 
113 3 1 -1.00000000 129.10000610 323.04157257 -113.66123962 75.94688416 2 -1 0 
114 3 1 -1.00000000 129.10000610 323.31721497 -114.40116119 79.54277802 2 -1 0 
115 3 2 1.00000000 128.19999695 327.21126556 -115.62350464 79.41806030 2 -1 0 
116 3 2 1.00000000 128.19999695 330.81034088 -114.91226196 80.92822266 2 -1 0 
117 3 1 -1.00000000 129.10000610 332.94342041 -112.54795074 83.38861847 2 -1 0 
118 3 1 -1.00000000 129.10000610 335.33917999 -109.48916626 83.39445496 2 -1 0 
119 3 2 1.00000000 128.19999695 334.90557098 -106.08185577 84.17486572 2 -1 0 
120 3 1 -1.00000000 129.10000610 332.50747681 -103.80911255 86.45978546 2 -1 0 
121 3 1 -1.00000000 129.10000610 332.10990143 -100.25074005 88.38607025 2 0 0 
122 3 1 -1.00000000 129.10000610 332.30630493 -96.50315094 87.56987000 2 0 0 
123 3 2 1.00000000 128.19999695 329.96766663 -94.16225433 89.25052643 2 0 0 
124 3 1 -1.00000000 129.10000610 330.12625122 -90.43370056 87.83048248 2 0 0 
125 3 1 -1.00000000 129.10000610 329.99916840 -87.76144409 85.41658020 2 0 0 
126 3 2 1.00000000 128.19999695 329.12342834 -89.31701660 82.06791687 2 0 0 
127 3 2 1.00000000 128.19999695 332.00774384 -88.74827576 79.57643127 2 0 0 
128 3 2 1.00000000 128.19999695 335.21247864 -89.69515991 81.83436584 2 0 0 
129 3 2 1.00000000 128.19999695 338.01928711 -90.35171509 84.05554962 2 0 0 
130 3 2 1.00000000 128.19999695 342.07990265 -90.27161407 83.95527649 2 0 0 
131 3 1 -1.00000000 129.10000610 343.51317596 -90.01487732 80.60679626 2 0 0 
132 3 1 -1.00000000 129.10000610 345.61258698 -93.27984619 80.62686920 2 0 0 
133 3 1 -1.00000000 129.10000610 347.53010559 -95.58593750 78.41452789 2 0 0 
134 3 2 1.00000000 128.19999695 349.70946503 -97.03410339 75.46682739 2 0 0 
135 3 2 1.00000000 128.19999695 347.96375275 -94.36341095 72.71041107 2 0 0 
136 3 2 1.00000000 128.19999695 347.37445831 -92.45925140 69.82540131 2 0 0 
137 3 1 -1.00000000 129.10000610 347.30692291 -90.92550659 66.38497925 2 0 0 
138 3 2 1.00000000 128.19999695 349.53823853 -88.60820007 64.23802948 2 0 0 
139 3 1 -1.00000000 129.10000610 348.57986450 -86.47328949 61.14542389 2 0 0 
140 3 1 -1.00000000 129.10000610 350.63593292 -86.42189026 58.03707886 2 0 0 
141 3 1 -1.00000000 129.10000610 354.11703873 -87.67520905 58.44008636 2 0 0 
142 3 2 1.00000000 128.19999695 356.81476974 -87.78408813 61.03735733 2 0 0 
143 3 1 -1.00000000 129.10000610 360.27422333 -85.57732391 60.35137177 2 0 0 
144 3 2 1.00000000 128.19999695 362.74474716 -82.59685516 60.69409943 2 0 0 
145 3 2 1.00000000 128.19999695 364.28515625 -79.94101715 62.79882431 2 0 0 
146 3 2 1.00000000 128.19999695 367.39305878 -79.31195068 64.80188751 2 0 0 
147 3 1 -1.00000000 129.10000610 370.30020142 -80.67415619 66.77922821 2 0 0 
148 3 2 1.00000000 128.19999695 371.78997803 -83.67895508 68.05484772 2 0 0 
149 3 1 -1.00000000 129.10000610 372.28928757 -87.36615753 68.32867432 2 0 0 
150 3 2 1.00000000 128.19999695 374.22831726 -89.25882721 70.99368286 2 0 0 
151 4 2 1.00000000 128.19999695 -243.43126297 380.86932755 33.31718826 -1 2 0 
152 4 1 -1.00000000 129.10000610 -243.77716064 377.02930069 34.09442902 -1 2 0 
153 4 2 1.00000000 128.19999695 -242.58309174 373.34055328 34.81822586 -1 2 0 
154 4 2 1.00000000 128.19999695 -243.60965729 370.04747009 32.47833633 -1 2 0 
155 4 2 1.00000000 128.19999695 -244.63796616 368.85136414 29.20948982 -1 2 0 
156 4 1 -1.00000000 129.10000610 -246.12516403 371.79557800 26.97444534 -1 2 0 
157 4 2 1.00000000 128.19999695 -248.30941010 371.81326294 24.41681480 -1 2 0 
158 4 1 -1.00000000 129.10000610 -248.22497177 368.50681305 22.21214294 -1 2 0 
159 4 1 -1.00000000 129.10000610 -251.35662842 366.35219955 23.00279236 -1 2 0 
160 4 1 -1.00000000 129.10000610 -253.98124313 366.86394501 26.15380096 -1 2 0 
161 4 2 1.00000000 128.19999695 -257.56580734 365.88637924 27.07509041 -1 2 0 
162 4 1 -1.00000000 129.10000610 -260.56703568 367.01275635 28.69564819 -1 2 0 
163 4 1 -1.00000000 129.10000610 -264.16949081 367.48196411 30.10292244 -1 2 0 
164 4 1 -1.00000000 129.10000610 -267.05915833 365.63802719 28.49210930 -1 2 0 
165 4 2 1.00000000 128.19999695 -265.97727966 361.80217361 28.13298988 -1 2 0 
166 4 2 1.00000000 128.19999695 -263.46726227 361.34387970 25.29048729 -1 2 0 
167 4 1 -1.00000000 129.10000610 -260.94049835 358.91639328 23.68411827 -1 2 0 
168 4 1 -1.00000000 129.10000610 -258.14415741 357.46023178 25.55635262 -1 2 0 
169 4 2 1.00000000 128.19999695 -256.73302460 354.27753830 23.46473503 -1 2 0 
170 4 1 -1.00000000 129.10000610 -254.78974915 356.17827225 21.06355095 -1 2 0 
171 4 1 -1.00000000 129.10000610 -252.57971191 354.74026871 18.16925430 -1 2 0 
172 4 1 -1.00000000 129.10000610 -251.60388947 355.54280472 14.82619762 -1 2 0 
173 4 2 1.00000000 128.19999695 -254.49963379 355.44994354 12.60177135 -1 2 0 
174 4 1 -1.00000000 129.10000610 -258.19659424 355.48079300 11.15716839 -1 2 0 
175 4 1 -1.00000000 129.10000610 -258.49770737 354.87992859 7.58592844 -1 2 0 
176 4 2 1.00000000 128.19999695 -260.07425308 355.74588776 4.09804440 -1 2 0 
177 4 2 1.00000000 128.19999695 -263.11468887 358.31126022 4.87604189 -1 2 0 
178 4 2 1.00000000 128.19999695 -265.53188705 357.25209808 7.68414783 -1 2 0 
179 4 2 1.00000000 128.19999695 -268.87870026 358.67355347 8.69876194 -1 2 0 
180 4 2 1.00000000 128.19999695 -272.74872589 359.12634277 8.52033615 -1 2 0 
181 4 1 -1.00000000 129.10000610 -273.59604645 355.32175064 9.60926628 -1 2 0 
182 4 1 -1.00000000 129.10000610 -271.38162231 352.31230545 10.70199108 -1 2 0 
183 4 1 -1.00000000 129.10000610 -268.08940125 350.36946869 11.42034245 -1 2 0 
184 4 2 1.00000000 128.19999695 -267.29780579 351.64719009 15.06996155 -1 2 0 
185 4 2 1.00000000 128.19999695 -265.27794266 354.73446655 16.19420433 -1 2 0 
186 4 2 1.00000000 128.19999695 -263.63224792 354.68204880 19.53614426 -1 2 0 
187 4 1 -1.00000000 129.10000610 -262.90017700 351.15376282 21.22937775 -1 2 0 
188 4 2 1.00000000 128.19999695 -263.72224426 347.79144287 22.92629242 -1 2 0 
189 4 1 -1.00000000 129.10000610 -262.17299271 345.76505280 25.42155647 -1 2 0 
190 4 1 -1.00000000 129.10000610 -259.42401123 343.18687439 26.21363831 -1 2 0 
191 4 1 -1.00000000 129.10000610 -255.49479294 342.93824768 25.96207047 -1 2 0 
192 4 2 1.00000000 128.19999695 -253.46714783 340.04288483 27.11159325 -1 2 0 
193 4 1 -1.00000000 129.10000610 -249.82257843 338.26414490 27.23940277 -1 2 0 
194 4 2 1.00000000 128.19999695 -246.93958664 336.95124054 24.84322548 -1 2 0 
195 4 2 1.00000000 128.19999695 -244.57800674 335.95899200 21.57434273 -1 2 0 
196 4 2 1.00000000 128.19999695 -241.00281143 336.84627533 23.34403992 -1 2 0 
197 4 1 -1.00000000 129.10000610 -237.44985199 337.36061859 24.76428986 -1 2 0 
198 4 2 1.00000000 128.19999695 -233.84174156 335.69607544 24.38275719 -1 2 0 
199 4 1 -1.00000000 129.10000610 -230.51539421 337.25216675 22.66987228 -1 2 0 
200 4 2 1.00000000 128.19999695 -227.35892868 339.25224304 24.48826408 -1 2 0 
201 5 2 1.00000000 128.19999695 -241.75667191 -247.03630829 -166.66743469 -1 -1 -1 
202 5 1 -1.00000000 129.10000610 -245.27997208 -248.30611801 -167.04014587 -1 -1 -1 
203 5 2 1.00000000 128.19999695 -246.43088913 -251.47727585 -165.21690750 -1 -1 -1 
204 5 2 1.00000000 128.19999695 -249.88713074 -251.63357925 -165.12277222 -1 -1 -1 
205 5 2 1.00000000 128.19999695 -253.13419724 -251.56296921 -167.02585220 -1 -1 -1 
206 5 1 -1.00000000 129.10000610 -255.02326584 -250.16603851 -169.75305176 -1 -1 -1 
207 5 2 1.00000000 128.19999695 -257.75854111 -252.40415192 -171.92575836 -1 -1 -1 
208 5 1 -1.00000000 129.10000610 -258.83507538 -255.89921188 -171.48442078 -1 -1 -1 
209 5 1 -1.00000000 129.10000610 -256.32144165 -258.04146957 -170.32720947 -1 -1 -1 
210 5 1 -1.00000000 129.10000610 -252.51192474 -257.77497101 -168.65324783 -1 -1 -1 
211 5 2 1.00000000 128.19999695 -251.35490036 -260.75490189 -166.19707108 -1 -1 -1 
212 5 1 -1.00000000 129.10000610 -247.48274994 -259.21150589 -166.39736557 -1 -1 -1 
213 5 1 -1.00000000 129.10000610 -244.29589844 -257.86895370 -167.32268143 -1 -1 -1 
214 5 1 -1.00000000 129.10000610 -242.83086777 -257.10095596 -170.76083755 -1 -1 -1 
215 5 2 1.00000000 128.19999695 -239.16227531 -257.71084595 -171.81245422 -1 -1 -1 
216 5 2 1.00000000 128.19999695 -238.92984009 -257.45174789 -175.83185196 -1 -1 -1 
217 5 1 -1.00000000 129.10000610 -237.46617126 -254.25358582 -177.35755157 -1 -1 -1 
218 5 1 -1.00000000 129.10000610 -236.91535950 -251.64458084 -179.61802292 -1 -1 -1 
219 5 2 1.00000000 128.19999695 -239.68787384 -250.86932755 -181.99151421 -1 -1 -1 
220 5 1 -1.00000000 129.10000610 -238.74596214 -247.21927643 -182.41427040 -1 -1 -1 
221 5 1 -1.00000000 129.10000610 -240.62521744 -246.14970016 -185.77163506 -1 -1 -1 
222 5 1 -1.00000000 129.10000610 -240.50112152 -246.17683411 -189.63700104 -1 -1 -1 
223 5 2 1.00000000 128.19999695 -243.29738235 -243.60926819 -190.57175636 -1 -1 -1 
224 5 1 -1.00000000 129.10000610 -243.76836395 -243.90332794 -194.25579548 -1 -1 -1 
225 5 1 -1.00000000 129.10000610 -242.92021561 -244.86286163 -198.11650848 -1 -1 -1 
226 5 2 1.00000000 128.19999695 -240.39356995 -244.90146637 -200.94440460 -1 -1 -1 
227 5 2 1.00000000 128.19999695 -239.31935692 -245.48109818 -204.47888947 -1 -1 -1 
228 5 2 1.00000000 128.19999695 -238.01284027 -247.21575165 -207.40921320 -1 -1 -1 
229 5 2 1.00000000 128.19999695 -236.64963150 -249.93159103 -209.57895660 -1 -1 -1 
230 5 2 1.00000000 128.19999695 -237.25380707 -250.90367126 -213.34427166 -1 -1 -1 
231 5 1 -1.00000000 129.10000610 -240.80985641 -250.19029236 -214.15443182 -1 -1 -1 
232 5 1 -1.00000000 129.10000610 -242.80344391 -251.55250168 -211.15556192 -1 -1 -1 
233 5 1 -1.00000000 129.10000610 -243.40542603 -255.28373718 -211.73823643 -1 -1 -1 
234 5 2 1.00000000 128.19999695 -246.81929779 -257.12290573 -211.03073931 -1 -1 -1 
235 5 2 1.00000000 128.19999695 -250.32737350 -257.03677368 -209.82758427 -1 -1 -1 
236 5 2 1.00000000 128.19999695 -253.01386261 -259.82810974 -210.56912565 -1 -1 -1 
237 5 1 -1.00000000 129.10000610 -251.35316849 -263.26753998 -209.24894857 -1 -1 -1 
238 5 2 1.00000000 128.19999695 -250.74707413 -264.72688675 -205.94451022 -1 -1 -1 
239 5 1 -1.00000000 129.10000610 -249.19024658 -263.41730118 -202.75870180 -1 -1 -1 
240 5 1 -1.00000000 129.10000610 -246.90114212 -260.70751190 -204.68312263 -1 -1 -1 
241 5 1 -1.00000000 129.10000610 -244.56293106 -257.58393860 -204.09331751 -1 -1 -1 
242 5 2 1.00000000 128.19999695 -241.55326080 -254.99267197 -203.97079492 -1 -1 -1 
243 5 1 -1.00000000 129.10000610 -241.93953705 -251.35725784 -204.94616032 -1 -1 -1 
244 5 2 1.00000000 128.19999695 -245.08017731 -249.70264053 -204.70681214 -1 -1 -1 
245 5 2 1.00000000 128.19999695 -247.45195389 -247.73808670 -207.00333291 -1 -1 -1 
246 5 2 1.00000000 128.19999695 -248.33341980 -244.38361359 -207.18039356 -1 -1 -1 
247 5 1 -1.00000000 129.10000610 -248.14427948 -242.89397812 -203.97901964 -1 -1 -1 
248 5 2 1.00000000 128.19999695 -248.74792099 -242.98128510 -200.42140913 -1 -1 -1 
249 5 1 -1.00000000 129.10000610 -252.64781570 -242.65247345 -199.43067169 -1 -1 -1 
250 5 2 1.00000000 128.19999695 -252.72311401 -241.84197998 -195.57638550 -1 -1 -1 
251 6 2 1.00000000 128.19999695 525.50399017 -480.18099976 -89.15592194 3 -2 0 
252 6 1 -1.00000000 129.10000610 526.83351898 -482.46823883 -86.58229065 3 -2 0 
253 6 2 1.00000000 128.19999695 527.91932678 -485.95613098 -85.48672485 3 -2 0 
254 6 2 1.00000000 128.19999695 531.44119263 -485.78650665 -84.56672668 3 -2 0 
255 6 2 1.00000000 128.19999695 535.09707642 -485.34442902 -83.19411469 3 -2 0 
256 6 1 -1.00000000 129.10000610 535.01740265 -482.76167297 -80.18334961 3 -2 0 
257 6 2 1.00000000 128.19999695 535.49810028 -479.46334076 -78.65756989 3 -2 0 
258 6 1 -1.00000000 129.10000610 534.46627808 -477.57376099 -82.06153107 3 -2 0 
259 6 1 -1.00000000 129.10000610 535.46857452 -477.16442490 -85.62037659 3 -2 0 
260 6 1 -1.00000000 129.10000610 538.98838806 -476.02580261 -85.25966644 3 -2 0 
261 6 2 1.00000000 128.19999695 539.73979187 -472.46928787 -83.52352142 3 -2 0 
262 6 1 -1.00000000 129.10000610 542.86899567 -471.66261292 -85.15970612 3 -2 0 
263 6 1 -1.00000000 129.10000610 542.39284515 -468.83704376 -87.71078491 3 -2 0 
264 6 1 -1.00000000 129.10000610 539.33185577 -466.89901733 -86.14511108 3 -2 0 
265 6 2 1.00000000 128.19999695 539.63719177 -465.03097153 -82.47035980 3 -2 0 
266 6 2 1.00000000 128.19999695 536.61968231 -465.13737488 -80.09373474 3 -2 0 
267 6 1 -1.00000000 129.10000610 534.35337830 -466.94813156 -77.67209625 3 -2 0 
268 6 1 -1.00000000 129.10000610 530.69651031 -467.49974823 -76.84965515 3 -2 0 
269 6 2 1.00000000 128.19999695 527.85754395 -467.29462051 -74.57844543 3 -2 0 
270 6 1 -1.00000000 129.10000610 528.18216705 -465.05297852 -71.63307190 3 -2 0 
271 6 1 -1.00000000 129.10000610 525.47518158 -462.35982895 -72.01189423 3 -2 0 
272 6 1 -1.00000000 129.10000610 522.42857361 -460.86851883 -72.56729889 3 -2 0 
273 6 2 1.00000000 128.19999695 520.14286804 -460.10938644 -75.31184387 3 -2 0 
274 6 1 -1.00000000 129.10000610 520.57080841 -458.73506927 -78.59555054 3 -2 0 
275 6 1 -1.00000000 129.10000610 520.08785248 -461.07428741 -81.62691498 3 -2 0 
276 6 2 1.00000000 128.19999695 521.62886810 -461.53307724 -84.85773468 3 -2 0 
277 6 2 1.00000000 128.19999695 525.24484253 -462.45195389 -86.43099976 3 -2 0 
278 6 2 1.00000000 128.19999695 526.89669037 -459.23313141 -87.64247894 3 -2 0 
279 6 2 1.00000000 128.19999695 529.46710968 -458.53824234 -90.38245392 3 -2 0 
280 6 2 1.00000000 128.19999695 529.37579346 -455.71208572 -92.67626190 3 -2 0 
281 6 1 -1.00000000 129.10000610 526.56970215 -453.02569962 -92.38416290 3 -2 0 
282 6 1 -1.00000000 129.10000610 526.55921173 -449.54845428 -93.89006042 3 -2 0 
283 6 1 -1.00000000 129.10000610 524.62649536 -448.55540085 -96.96225739 3 -2 0 
284 6 2 1.00000000 128.19999695 525.34266663 -451.25906754 -99.70202637 3 -2 0 
285 6 2 1.00000000 128.19999695 523.17879486 -453.29359055 -101.94184875 3 -2 0 
286 6 2 1.00000000 128.19999695 522.62985229 -456.81399918 -102.94973755 3 -2 0 
287 6 1 -1.00000000 129.10000610 524.51279449 -460.18757248 -102.19007111 3 -2 0 
288 6 2 1.00000000 128.19999695 525.54168701 -463.09509277 -104.52765656 3 -2 -1 
289 6 1 -1.00000000 129.10000610 525.09944153 -466.28252792 -101.82908630 3 -2 0 
290 6 1 -1.00000000 129.10000610 522.98598480 -464.69322586 -99.30055237 3 -2 0 
291 6 1 -1.00000000 129.10000610 520.19592285 -466.27552032 -97.62688446 3 -2 0 
292 6 2 1.00000000 128.19999695 517.16255951 -464.54460526 -95.99249268 2 -2 0 
293 6 1 -1.00000000 129.10000610 514.95729065 -467.86823654 -96.36034393 2 -2 0 
294 6 2 1.00000000 128.19999695 515.56474304 -471.13407516 -98.17994690 2 -2 0 
295 6 2 1.00000000 128.19999695 517.02949524 -472.83815384 -101.21074677 2 -2 0 
296 6 2 1.00000000 128.19999695 514.86039734 -474.55781937 -103.92474365 2 -2 -1 
297 6 1 -1.00000000 129.10000610 514.28033447 -475.29616547 -107.72826385 2 -2 -1 
298 6 2 1.00000000 128.19999695 511.68748474 -476.38489914 -110.06469727 2 -2 -1 
299 6 1 -1.00000000 129.10000610 508.10124969 -478.09397888 -110.16379547 2 -2 -1 
300 6 2 1.00000000 128.19999695 505.84985352 -477.00915146 -107.08660126 2 -2 -1 
301 7 2 1.00000000 128.19999695 -14.65866375 -78.05832672 -829.54564992 0 0 -4 
302 7 1 -1.00000000 129.10000610 -16.97167397 -80.62999725 -830.26685989 0 0 -4 
303 7 2 1.00000000 128.19999695 -18.57321358 -84.02582550 -831.77871847 0 0 -4 
304 7 2 1.00000000 128.19999695 -19.74847221 -87.51903534 -831.36288524 0 0 -4 
305 7 2 1.00000000 128.19999695 -21.69915962 -88.04486084 -828.26977122 0 0 -4 
306 7 1 -1.00000000 129.10000610 -20.62512207 -91.24357605 -827.03470206 0 0 -4 
307 7 2 1.00000000 128.19999695 -18.20192909 -93.70618439 -825.66922283 0 0 -4 
308 7 1 -1.00000000 129.10000610 -16.90643692 -95.36768341 -822.50302219 0 0 -4 
309 7 1 -1.00000000 129.10000610 -17.38538933 -99.21105957 -821.26823711 0 0 -4 
310 7 1 -1.00000000 129.10000610 -16.91966629 -101.64247894 -823.96508312 0 0 -4 
311 7 2 1.00000000 128.19999695 -13.16389370 -102.21524048 -824.75569439 0 0 -4 
312 7 1 -1.00000000 129.10000610 -9.06468868 -102.34162903 -824.54452038 0 0 -4 
313 7 1 -1.00000000 129.10000610 -6.34169292 -103.04976654 -827.08790469 0 0 -4 
314 7 1 -1.00000000 129.10000610 -3.24709606 -104.42813110 -826.77437854 0 -1 -4 
315 7 2 1.00000000 128.19999695 0.01451274 -105.01713562 -824.78704023 0 -1 -4 
316 7 2 1.00000000 128.19999695 2.28187013 -107.12306213 -822.33087015 0 -1 -4 
317 7 1 -1.00000000 129.10000610 1.78752160 -105.30701447 -819.10063934 0 -1 -4 
318 7 1 -1.00000000 129.10000610 -1.36254823 -103.46822357 -817.69147396 0 0 -4 
319 7 2 1.00000000 128.19999695 -0.02019094 -101.20777130 -814.85974312 0 0 -4 
320 7 1 -1.00000000 129.10000610 3.95470762 -100.48103333 -814.72005653 0 0 -4 
321 7 1 -1.00000000 129.10000610 6.02223682 -99.41706085 -818.13543129 0 0 -4 
322 7 1 -1.00000000 129.10000610 7.62492085 -102.40930176 -820.00082588 0 0 -4 
323 7 2 1.00000000 128.19999695 11.13298702 -101.39264679 -821.02186584 0 0 -4 
324 7 1 -1.00000000 129.10000610 12.96906471 -98.83025360 -822.24408960 0 0 -4 
325 7 1 -1.00000000 129.10000610 15.36418915 -96.46457672 -820.92984772 0 0 -4 
326 7 2 1.00000000 128.19999695 15.29853630 -94.80694580 -817.58511734 0 0 -4 
327 7 2 1.00000000 128.19999695 18.30507088 -93.44341278 -815.66625786 0 0 -4 
328 7 2 1.00000000 128.19999695 19.71112251 -90.97563171 -818.59842300 0 0 -4 
329 7 2 1.00000000 128.19999695 20.73295403 -87.43306732 -818.99111366 0 0 -4 
330 7 2 1.00000000 128.19999695 19.47014236 -83.99720001 -818.69866943 0 0 -4 
331 7 1 -1.00000000 129.10000610 17.37429428 -80.44841766 -818.26772308 0 0 -4 
332 7 1 -1.00000000 129.10000610 15.09841824 -78.41893768 -820.60235119 0 0 -4 
333 7 1 -1.00000000 129.10000610 11.59712219 -79.39381409 -819.65255070 0 0 -4 
334 7 2 1.00000000 128.19999695 8.17121220 -78.67870331 -817.74481583 0 0 -4 
335 7 2 1.00000000 128.19999695 9.87163448 -75.31008911 -816.55913448 0 0 -4 
336 7 2 1.00000000 128.19999695 11.29376030 -76.13721466 -812.89136314 0 0 -4 
337 7 1 -1.00000000 129.10000610 15.25192165 -76.76367188 -812.84650040 0 0 -4 
338 7 2 1.00000000 128.19999695 19.15826797 -76.70538330 -813.36095047 0 0 -4 
339 7 1 -1.00000000 129.10000610 22.75090408 -77.59125519 -814.54878807 0 0 -4 
340 7 1 -1.00000000 129.10000610 26.15784645 -76.50210571 -814.97255993 0 0 -4 
341 7 1 -1.00000000 129.10000610 26.38935471 -72.68185425 -816.42894840 0 0 -4 
342 7 2 1.00000000 128.19999695 27.39100266 -70.55243683 -819.65558243 0 0 -4 
343 7 1 -1.00000000 129.10000610 28.54238129 -66.84848022 -820.65781021 0 0 -4 
344 7 2 1.00000000 128.19999695 29.15933990 -63.56422424 -818.80135918 0 0 -4 
345 7 2 1.00000000 128.19999695 32.33473587 -61.81277466 -819.57972431 0 0 -4 
346 7 2 1.00000000 128.19999695 34.16042328 -59.86805344 -816.33203888 0 0 -4 
347 7 1 -1.00000000 129.10000610 36.15071106 -61.16596985 -813.39176559 0 0 -4 
348 7 2 1.00000000 128.19999695 36.93758774 -61.05464554 -809.89534760 0 0 -4 
349 7 1 -1.00000000 129.10000610 37.79079819 -57.76345825 -807.88558960 0 0 -4 
350 7 2 1.00000000 128.19999695 40.59495163 -55.80500412 -805.70231438 0 0 -4 
351 8 2 1.00000000 128.19999695 54.00116348 -204.92933631 628.13542795 0 -1 3 
352 8 1 -1.00000000 129.10000610 51.82110596 -202.39444017 626.44229174 0 -1 3 
353 8 2 1.00000000 128.19999695 48.66769028 -200.71410942 625.06717253 0 -1 3 
354 8 2 1.00000000 128.19999695 44.77370453 -201.66341686 625.45232010 0 -1 3 
355 8 2 1.00000000 128.19999695 44.03268433 -205.32686615 625.64323664 0 -1 3 
356 8 1 -1.00000000 129.10000610 40.30932999 -206.79738998 626.73517227 0 -1 3 
357 8 2 1.00000000 128.19999695 37.59028244 -208.49080849 624.56778312 0 -1 3 
358 8 1 -1.00000000 129.10000610 34.92057419 -208.17028034 622.15279952 0 -1 3 
359 8 1 -1.00000000 129.10000610 33.27487564 -211.50791407 621.24980849 0 -1 3 
360 8 1 -1.00000000 129.10000610 29.71470451 -209.85839152 620.56217217 0 -1 3 
361 8 2 1.00000000 128.19999695 27.84513283 -209.48659468 624.09199429 0 -1 3 
362 8 1 -1.00000000 129.10000610 25.28310394 -210.71864653 626.75624228 0 -1 3 
363 8 1 -1.00000000 129.10000610 25.07273865 -214.00371075 628.77803040 0 -1 3 
364 8 1 -1.00000000 129.10000610 22.00702286 -216.54557514 628.66765308 0 -1 3 
365 8 2 1.00000000 128.19999695 20.26158524 -218.44036579 631.20443726 0 -1 3 
366 8 2 1.00000000 128.19999695 18.55950165 -221.10075283 633.32374859 0 -1 3 
367 8 1 -1.00000000 129.10000610 17.33221626 -222.14137173 636.62116814 0 -1 3 
368 8 1 -1.00000000 129.10000610 17.08974075 -225.74721527 637.13102722 0 -1 3 
369 8 2 1.00000000 128.19999695 15.67982483 -227.99622154 639.84462357 0 -1 3 
370 8 1 -1.00000000 129.10000610 12.74427414 -226.35192299 642.05176735 0 -1 3 