ITEM: TIMESTEP
44400000 
ITEM: NUMBER OF ATOMS 
25000 
ITEM: BOX BOUNDS pp pp pp 
-103.678017 103.678017 
-103.678017 103.678017 
-103.678017 103.678017 
ITEM: ATOMS id mol type q mass xu yu zu ix iy iz 
1 1 2 1.00000000 128.19999695 545.62614441 -217.00368786 -258.77216721 3 -1 -1 
2 1 1 -1.00000000 129.10000610 546.99752045 -217.64294529 -255.33719635 3 -1 -1 
3 1 2 1.00000000 128.19999695 548.84977722 -214.85725117 -253.40904617 3 -1 -1 
4 1 2 1.00000000 128.19999695 548.72675323 -211.53218651 -255.53499985 3 -1 -1 
5 1 2 1.00000000 128.19999695 548.23107910 -208.92820823 -258.18178940 3 -1 -1 
6 1 1 -1.00000000 129.10000610 548.51412201 -205.13063431 -258.08117294 3 -1 -1 
7 1 2 1.00000000 128.19999695 548.91206360 -202.73994112 -261.12321472 3 -1 -1 
8 1 1 -1.00000000 129.10000610 545.15926361 -203.02935219 -262.31139755 3 -1 -1 
9 1 1 -1.00000000 129.10000610 541.66667175 -201.22934055 -262.53996277 3 -1 -1 
10 1 1 -1.00000000 129.10000610 539.03551483 -199.62174368 -264.09643555 3 -1 -1 
11 1 2 1.00000000 128.19999695 535.42986298 -201.26780701 -262.83793259 3 -1 -1 
12 1 1 -1.00000000 129.10000610 532.89421082 -203.63344646 -261.36246490 3 -1 -1 
13 1 1 -1.00000000 129.10000610 532.09454346 -207.14659631 -262.88484955 3 -1 -1 
14 1 1 -1.00000000 129.10000610 531.03430939 -210.75782228 -262.00365829 3 -1 -1 
15 1 2 1.00000000 128.19999695 531.06891632 -213.76761627 -263.58739853 3 -1 -1 
16 1 2 1.00000000 128.19999695 532.16439819 -217.07441425 -264.34642029 3 -1 -1 
17 1 1 -1.00000000 129.10000610 534.37771606 -218.77628040 -267.07536697 3 -1 -1 
18 1 1 -1.00000000 129.10000610 538.52881622 -218.89394474 -266.71748734 3 -1 -1 
19 1 2 1.00000000 128.19999695 539.50952911 -220.11166096 -270.11839294 3 -1 -1 
20 1 1 -1.00000000 129.10000610 542.40776062 -218.97208881 -271.88865662 3 -1 -1 
21 1 1 -1.00000000 129.10000610 543.86786652 -215.20520306 -272.84819031 3 -1 -1 
22 1 1 -1.00000000 129.10000610 546.84609222 -213.82532215 -274.70667267 3 -1 -1 
23 1 2 1.00000000 128.19999695 550.56888580 -214.05742455 -275.51148987 3 -1 -1 
24 1 1 -1.00000000 129.10000610 553.94053650 -214.33822012 -273.84627533 3 -1 -1 
25 1 1 -1.00000000 129.10000610 555.86573029 -211.39503479 -272.09883881 3 -1 -1 
26 1 2 1.00000000 128.19999695 557.46000671 -209.53367949 -275.22812653 3 -1 -1 
27 1 2 1.00000000 128.19999695 561.30989456 -210.23589396 -275.44445038 3 -1 -1 
28 1 2 1.00000000 128.19999695 564.48577118 -209.11017692 -273.59392548 3 -1 -1 
29 1 2 1.00000000 128.19999695 568.41802216 -208.36467540 -274.69326019 3 -1 -1 
30 1 2 1.00000000 128.19999695 570.07543564 -204.97296071 -274.38077545 3 -1 -1 
31 1 1 -1.00000000 129.10000610 568.89671707 -201.23520613 -274.49771118 3 -1 -1 
32 1 1 -1.00000000 129.10000610 568.71864700 -200.65475035 -270.65573883 3 -1 -1 
33 1 1 -1.00000000 129.10000610 569.34670258 -196.81684875 -269.75397873 3 -1 -1 
34 1 2 1.00000000 128.19999695 569.33321762 -192.89474106 -268.84195328 3 -1 -1 
35 1 2 1.00000000 128.19999695 572.91054535 -192.49308205 -267.02352524 3 -1 -1 
36 1 2 1.00000000 128.19999695 575.41356277 -195.35368633 -265.61478424 3 -1 -1 
37 1 1 -1.00000000 129.10000610 572.80332184 -198.36617279 -265.35322189 3 -1 -1 
38 1 2 1.00000000 128.19999695 569.99171448 -197.97949696 -262.67821121 3 -1 -1 
39 1 1 -1.00000000 129.10000610 566.67474365 -199.75933504 -263.49097061 3 -1 -1 
40 1 1 -1.00000000 129.10000610 564.53926849 -202.82450867 -262.57594299 3 -1 -1 
41 1 1 -1.00000000 129.10000610 560.97207260 -203.29331017 -264.13790894 3 -1 -1 
42 1 2 1.00000000 128.19999695 558.72832108 -201.16284800 -261.81630707 3 -1 -1 
43 1 1 -1.00000000 129.10000610 558.45974731 -197.82639503 -259.39585114 3 -1 -1 
44 1 2 1.00000000 128.19999695 560.76194763 -194.73377419 -259.00690842 3 -1 -1 
45 1 2 1.00000000 128.19999695 561.99630737 -191.57635975 -257.36247635 3 -1 -1 
46 1 2 1.00000000 128.19999695 561.13866425 -189.28262711 -254.81549454 3 -1 -1 
47 1 1 -1.00000000 129.10000610 561.98369598 -186.38493347 -252.94074631 3 -1 -1 
48 1 2 1.00000000 128.19999695 562.55989075 -186.60799980 -249.17103577 3 -1 -1 
49 1 1 -1.00000000 129.10000610 560.67466736 -185.84332085 -245.88946533 3 -1 -1 
50 1 2 1.00000000 128.19999695 559.37562180 -189.43148232 -244.66857910 3 -1 -1 
51 2 2 1.00000000 128.19999695 534.32853699 308.33527374 -254.58992386 3 1 -1 
52 2 1 -1.00000000 129.10000610 535.78549957 306.38620758 -257.34589005 3 1 -1 
53 2 2 1.00000000 128.19999695 536.34091949 302.99146271 -258.01266098 3 1 -1 
54 2 2 1.00000000 128.19999695 539.38225555 301.78118896 -260.10880280 3 1 -1 
55 2 2 1.00000000 128.19999695 542.49338531 301.87792206 -262.13266754 3 1 -1 
56 2 1 -1.00000000 129.10000610 545.35275269 302.65135956 -259.12260818 3 1 -1 
57 2 2 1.00000000 128.19999695 547.50478363 300.17027283 -256.86135864 3 1 -1 
58 2 1 -1.00000000 129.10000610 548.27756500 298.85089111 -253.52617645 3 1 -1 
59 2 1 -1.00000000 129.10000610 548.74190521 298.32601929 -249.82212448 3 1 -1 
60 2 1 -1.00000000 129.10000610 550.70984650 301.08370972 -248.49807358 3 1 -1 
61 2 2 1.00000000 128.19999695 552.44867706 303.47518921 -251.31024551 3 1 -1 
62 2 1 -1.00000000 129.10000610 554.61263275 303.93264771 -254.36766052 3 1 -1 
63 2 1 -1.00000000 129.10000610 556.93470764 303.67581177 -257.46444702 3 1 -1 
64 2 1 -1.00000000 129.10000610 560.95850754 303.98626709 -258.15788651 3 1 -1 
65 2 2 1.00000000 128.19999695 561.65568542 300.77140808 -259.91495895 3 1 -1 
66 2 2 1.00000000 128.19999695 564.39139175 298.86611938 -262.00153351 3 1 -1 
67 2 1 -1.00000000 129.10000610 567.04902267 295.99034119 -263.55202866 3 1 -1 
68 2 1 -1.00000000 129.10000610 567.39447021 292.43476105 -261.87296295 3 1 -1 
69 2 2 1.00000000 128.19999695 565.50763702 289.25995636 -261.27828598 3 1 -1 
70 2 1 -1.00000000 129.10000610 562.13162231 290.62589264 -262.91987610 3 1 -1 
71 2 1 -1.00000000 129.10000610 561.48745346 289.10461426 -266.36387634 3 1 -1 
72 2 1 -1.00000000 129.10000610 560.98493958 287.91948700 -270.07857132 3 1 -1 
73 2 2 1.00000000 128.19999695 562.00136566 289.77567291 -273.31326294 3 1 -1 
74 2 1 -1.00000000 129.10000610 563.31066895 292.78202057 -275.43864441 3 1 -1 
75 2 1 -1.00000000 129.10000610 564.78576660 291.37957764 -278.50074768 3 1 -1 
76 2 2 1.00000000 128.19999695 565.60948944 288.31583405 -280.58851624 3 1 -1 
77 2 2 1.00000000 128.19999695 568.96261597 286.67819214 -281.82451630 3 1 -1 
78 2 2 1.00000000 128.19999695 572.23726273 287.83638000 -283.87367249 3 1 -1 
79 2 2 1.00000000 128.19999695 574.28192902 289.63752747 -286.44139099 3 1 -1 
80 2 2 1.00000000 128.19999695 574.43257141 291.47461700 -289.71036530 3 1 -1 
81 2 1 -1.00000000 129.10000610 574.34077835 288.47779083 -292.24741364 3 1 -1 
82 2 1 -1.00000000 129.10000610 572.02657318 285.52169800 -293.22605896 3 1 -1 
83 2 1 -1.00000000 129.10000610 573.66257858 282.28902435 -291.99292755 3 1 -1 
84 2 2 1.00000000 128.19999695 575.06531525 279.50213623 -294.13853455 3 1 -1 
85 2 2 1.00000000 128.19999695 578.94368744 279.87194824 -293.78796387 3 1 -1 
86 2 2 1.00000000 128.19999695 581.98627090 281.54189301 -295.92581940 3 1 -1 
87 2 1 -1.00000000 129.10000610 582.37834549 282.57987213 -299.54371643 3 1 -1 
88 2 2 1.00000000 128.19999695 581.82495117 284.59249115 -302.74818420 3 1 -1 
89 2 1 -1.00000000 129.10000610 582.04576111 281.77500916 -305.51641083 3 1 -1 
90 2 1 -1.00000000 129.10000610 585.53449249 281.92946625 -305.98545074 3 1 -1 
91 2 1 -1.00000000 129.10000610 587.13204193 280.02414703 -302.93723297 3 1 -1 
92 2 2 1.00000000 128.19999695 590.57388115 278.94986725 -301.66509247 3 1 -1 
93 2 1 -1.00000000 129.10000610 592.67806625 275.81711578 -299.86539459 3 1 -1 
94 2 2 1.00000000 128.19999695 595.95051956 274.57595825 -302.19175720 3 1 -1 
95 2 2 1.00000000 128.19999695 599.82948685 273.74745178 -301.20635986 3 1 -1 
96 2 2 1.00000000 128.19999695 602.95153618 272.23616791 -299.65617371 3 1 -1 
97 2 1 -1.00000000 129.10000610 606.36172676 272.04712677 -298.02791595 3 1 -1 
98 2 2 1.00000000 128.19999695 608.10735893 272.87050629 -294.52482605 3 1 -1 
99 2 1 -1.00000000 129.10000610 609.46877575 269.84737778 -292.44805908 3 1 -1 
100 2 2 1.00000000 128.19999695 609.62904263 266.65060043 -290.75982666 3 1 -1 
101 3 2 1.00000000 128.19999695 290.37895966 -108.79731750 89.49048615 1 -1 0 
102 3 1 -1.00000000 129.10000610 287.48893738 -106.28536224 89.72351837 1 -1 0 
103 3 2 1.00000000 128.19999695 284.84745026 -103.47737885 89.50859070 1 0 0 
104 3 2 1.00000000 128.19999695 283.79409790 -100.68498230 86.98681641 1 0 0 
105 3 2 1.00000000 128.19999695 283.82662201 -97.60837555 84.73372650 1 0 0 
106 3 1 -1.00000000 129.10000610 287.07781982 -95.74161530 85.62357330 1 0 0 
107 3 2 1.00000000 128.19999695 291.04357147 -96.34085083 84.95205688 1 0 0 
108 3 1 -1.00000000 129.10000610 293.12870789 -96.92337036 82.46072388 1 0 0 
109 3 1 -1.00000000 129.10000610 291.36491394 -94.96002197 79.40062714 1 0 0 
110 3 1 -1.00000000 129.10000610 289.16352081 -98.00373840 77.25878906 1 0 0 
111 3 2 1.00000000 128.19999695 290.67188263 -98.35893250 73.44323730 1 0 0 
112 3 1 -1.00000000 129.10000610 293.64018250 -100.71848297 72.61403656 1 0 0 
113 3 1 -1.00000000 129.10000610 296.01152039 -103.42173004 71.17189026 1 0 0 
114 3 1 -1.00000000 129.10000610 297.22441101 -106.00710297 68.26140594 1 -1 0 
115 3 2 1.00000000 128.19999695 300.43328857 -106.39010620 66.44513702 1 -1 0 
116 3 2 1.00000000 128.19999695 303.30683136 -106.05697632 68.32030487 1 -1 0 
117 3 1 -1.00000000 129.10000610 306.17083740 -106.25935364 70.59918213 1 -1 0 
118 3 1 -1.00000000 129.10000610 309.47531128 -106.57855988 72.61483002 1 -1 0 
119 3 2 1.00000000 128.19999695 309.33864594 -104.55700684 76.03099060 1 -1 0 
120 3 1 -1.00000000 129.10000610 306.41864014 -104.62705994 78.54023743 1 -1 0 
121 3 1 -1.00000000 129.10000610 305.71751404 -108.35755920 79.14015961 1 -1 0 
122 3 1 -1.00000000 129.10000610 303.52683258 -110.91117859 81.29067230 1 -1 0 
123 3 2 1.00000000 128.19999695 300.27981567 -112.63036346 80.01828766 1 -1 0 
124 3 1 -1.00000000 129.10000610 299.71757507 -116.44522858 80.26170349 1 -1 0 
125 3 1 -1.00000000 129.10000610 297.61169434 -118.91310883 82.20814514 1 -1 0 
126 3 2 1.00000000 128.19999695 294.56293488 -118.85395813 84.81349182 1 -1 0 
127 3 2 1.00000000 128.19999695 292.32305145 -115.95616150 84.74855042 1 -1 0 
128 3 2 1.00000000 128.19999695 289.89672852 -113.15231323 83.10962677 1 -1 0 
129 3 2 1.00000000 128.19999695 290.69474792 -112.10051727 79.21237946 1 -1 0 
130 3 2 1.00000000 128.19999695 293.14994049 -112.10636139 75.77455902 1 -1 0 
131 3 1 -1.00000000 129.10000610 295.92033386 -113.98233032 74.05118561 1 -1 0 
132 3 1 -1.00000000 129.10000610 299.67556763 -112.97535706 73.88718414 1 -1 0 
133 3 1 -1.00000000 129.10000610 302.51779938 -112.52980042 70.92648315 1 -1 0 
134 3 2 1.00000000 128.19999695 306.09320831 -112.84803772 69.67293549 1 -1 0 
135 3 2 1.00000000 128.19999695 309.38355255 -112.92827606 68.03167725 1 -1 0 
136 3 2 1.00000000 128.19999695 313.10524750 -114.23235321 68.63787842 2 -1 0 
137 3 1 -1.00000000 129.10000610 315.80908203 -111.44100952 68.99412537 2 -1 0 
138 3 2 1.00000000 128.19999695 319.21636200 -113.08630371 70.12138367 2 -1 0 
139 3 1 -1.00000000 129.10000610 318.06111908 -115.48308563 73.05121613 2 -1 0 
140 3 1 -1.00000000 129.10000610 320.14899445 -116.55155182 76.32724762 2 -1 0 
141 3 1 -1.00000000 129.10000610 319.41280365 -114.71314240 79.58808136 2 -1 0 
142 3 2 1.00000000 128.19999695 320.82102966 -111.14144135 80.45384979 2 -1 0 
143 3 1 -1.00000000 129.10000610 318.39117432 -110.38670349 83.54432678 2 -1 0 
144 3 2 1.00000000 128.19999695 315.00134277 -111.93566895 83.09601593 2 -1 0 
145 3 2 1.00000000 128.19999695 312.76999664 -114.53914642 81.19138336 2 -1 0 
146 3 2 1.00000000 128.19999695 309.58143616 -116.30309296 82.79528809 1 -1 0 
147 3 1 -1.00000000 129.10000610 311.19536591 -117.97620392 86.32293701 2 -1 0 
148 3 2 1.00000000 128.19999695 313.61898804 -120.95945740 87.48091125 2 -1 0 
149 3 1 -1.00000000 129.10000610 316.84375000 -122.10402679 88.48265076 2 -1 0 
150 3 2 1.00000000 128.19999695 319.47714996 -125.02886963 88.47667694 2 -1 0 
151 4 2 1.00000000 128.19999695 -278.75051880 357.86108780 31.33004189 -1 2 0 
152 4 1 -1.00000000 129.10000610 -279.49324799 360.60737228 33.66651535 -1 2 0 
153 4 2 1.00000000 128.19999695 -277.40920258 362.66742706 36.42542648 -1 2 0 
154 4 2 1.00000000 128.19999695 -273.98137665 361.21372604 35.26639938 -1 2 0 
155 4 2 1.00000000 128.19999695 -271.83776855 364.13330460 34.89913559 -1 2 0 
156 4 1 -1.00000000 129.10000610 -272.76221466 367.70327759 33.32159042 -1 2 0 
157 4 2 1.00000000 128.19999695 -269.09645081 368.58362579 31.72305107 -1 2 0 
158 4 1 -1.00000000 129.10000610 -270.80015945 369.77114487 28.32479477 -1 2 0 
159 4 1 -1.00000000 129.10000610 -271.31594086 369.12773895 24.79024315 -1 2 0 
160 4 1 -1.00000000 129.10000610 -274.06290436 367.53066254 22.98993492 -1 2 0 
161 4 2 1.00000000 128.19999695 -274.55992126 364.84648514 20.36893082 -1 2 0 
162 4 1 -1.00000000 129.10000610 -277.51591492 363.94439697 18.23013306 -1 2 0 
163 4 1 -1.00000000 129.10000610 -280.51210785 361.92088318 17.42268181 -1 2 0 
164 4 1 -1.00000000 129.10000610 -281.16056061 360.01567841 20.30719376 -1 2 0 
165 4 2 1.00000000 128.19999695 -279.95700073 358.96645737 23.45318413 -1 2 0 
166 4 2 1.00000000 128.19999695 -276.26942444 359.71689987 24.79020882 -1 2 0 
167 4 1 -1.00000000 129.10000610 -272.56473541 360.08687210 24.78574944 -1 2 0 
168 4 1 -1.00000000 129.10000610 -269.79377365 357.77056503 26.36793327 -1 2 0 
169 4 2 1.00000000 128.19999695 -266.30150604 357.03697205 25.50418282 -1 2 0 
170 4 1 -1.00000000 129.10000610 -264.79708099 358.90707397 22.09889603 -1 2 0 
171 4 1 -1.00000000 129.10000610 -261.66489792 357.10856628 20.69658470 -1 2 0 
172 4 1 -1.00000000 129.10000610 -258.81510544 354.80609512 19.62658691 -1 2 0 
173 4 2 1.00000000 128.19999695 -257.70758438 351.71372223 18.07156563 -1 2 0 
174 4 1 -1.00000000 129.10000610 -254.46647263 350.90142059 16.64386368 -1 2 0 
175 4 1 -1.00000000 129.10000610 -251.07440186 350.83864975 14.23230076 -1 2 0 
176 4 2 1.00000000 128.19999695 -250.39771271 347.34004211 12.90371227 -1 2 0 
177 4 2 1.00000000 128.19999695 -249.82577515 345.97393799 9.13203239 -1 2 0 
178 4 2 1.00000000 128.19999695 -246.44053650 347.21772003 8.09215641 -1 2 0 
179 4 2 1.00000000 128.19999695 -242.83369064 346.66999054 7.01660347 -1 2 0 
180 4 2 1.00000000 128.19999695 -240.08711624 344.68306732 4.90066290 -1 2 0 
181 4 1 -1.00000000 129.10000610 -237.02524376 345.04402161 2.31231451 -1 2 0 
182 4 1 -1.00000000 129.10000610 -233.67271233 346.43712616 2.30283976 -1 2 0 
183 4 1 -1.00000000 129.10000610 -230.34601402 346.83679962 0.35249603 -1 2 0 
184 4 2 1.00000000 128.19999695 -229.21563721 346.47616577 -3.33389711 -1 2 0 
185 4 2 1.00000000 128.19999695 -231.90716171 345.77422333 -5.78930473 -1 2 0 
186 4 2 1.00000000 128.19999695 -235.50747871 346.94138336 -4.57166386 -1 2 0 
187 4 1 -1.00000000 129.10000610 -236.85758400 350.66291046 -4.84571266 -1 2 0 
188 4 2 1.00000000 128.19999695 -235.09531403 354.11206055 -3.44279337 -1 2 0 
189 4 1 -1.00000000 129.10000610 -232.81983376 355.80303955 -0.62990248 -1 2 0 
190 4 1 -1.00000000 129.10000610 -229.49806213 354.23368454 -0.42355311 -1 2 0 
191 4 1 -1.00000000 129.10000610 -226.39075279 352.38848114 -1.71673048 -1 2 0 
192 4 2 1.00000000 128.19999695 -224.53406525 351.12438965 1.33524406 -1 2 0 
193 4 1 -1.00000000 129.10000610 -227.06077194 351.86872101 4.10161304 -1 2 0 
194 4 2 1.00000000 128.19999695 -228.92119980 351.47154617 7.06249666 -1 2 0 
195 4 2 1.00000000 128.19999695 -231.89679146 349.29383850 7.80632925 -1 2 0 
196 4 2 1.00000000 128.19999695 -234.71894455 348.76136780 10.53241062 -1 2 0 
197 4 1 -1.00000000 129.10000610 -235.45085526 345.16319275 10.46768188 -1 2 0 
198 4 2 1.00000000 128.19999695 -234.27976799 343.03797150 7.63885403 -1 2 0 
199 4 1 -1.00000000 129.10000610 -230.56622696 342.18228149 6.97419310 -1 2 0 
200 4 2 1.00000000 128.19999695 -227.42861748 341.03607178 5.14948177 -1 2 0 
201 5 2 1.00000000 128.19999695 -301.40541077 -251.14057541 -213.29356098 -1 -1 -1 
202 5 1 -1.00000000 129.10000610 -298.00920868 -252.47928619 -211.55896282 -1 -1 -1 
203 5 2 1.00000000 128.19999695 -297.88812256 -251.07876968 -207.71568158 -1 -1 -1 
204 5 2 1.00000000 128.19999695 -299.51096344 -252.95470047 -204.78335571 -1 -1 -1 
205 5 2 1.00000000 128.19999695 -303.04367828 -254.31261826 -204.40901518 -1 -1 -1 
206 5 1 -1.00000000 129.10000610 -305.18979645 -257.14039612 -202.24289083 -1 -1 -1 
207 5 2 1.00000000 128.19999695 -306.86595154 -256.38507462 -198.94283867 -1 -1 -1 
208 5 1 -1.00000000 129.10000610 -306.19171906 -253.42089462 -197.30993271 -1 -1 -1 
209 5 1 -1.00000000 129.10000610 -303.15980530 -251.31026840 -196.16917229 -1 -1 -1 
210 5 1 -1.00000000 129.10000610 -303.69891357 -248.98945236 -199.13624382 -1 -1 -1 
211 5 2 1.00000000 128.19999695 -306.20539093 -247.64278030 -201.66210699 -1 -1 -1 
212 5 1 -1.00000000 129.10000610 -306.25745392 -248.53126144 -205.50606596 -1 -1 -1 
213 5 1 -1.00000000 129.10000610 -308.07541656 -250.60600281 -207.83857718 -1 -1 -1 
214 5 1 -1.00000000 129.10000610 -310.72270203 -252.57288361 -209.92340946 -1 -1 -1 
215 5 2 1.00000000 128.19999695 -310.61309814 -256.31972122 -208.48750210 -1 -1 -1 
216 5 2 1.00000000 128.19999695 -312.61334991 -258.93339539 -209.57195687 -2 -1 -1 
217 5 1 -1.00000000 129.10000610 -313.47666168 -261.78538513 -206.91642797 -2 -1 -1 
218 5 1 -1.00000000 129.10000610 -310.71109009 -264.43251801 -207.19773678 -1 -1 -1 
219 5 2 1.00000000 128.19999695 -311.47593689 -267.93931198 -207.80505428 -2 -1 -1 
220 5 1 -1.00000000 129.10000610 -311.59223175 -271.09249878 -209.63756537 -2 -1 -1 
221 5 1 -1.00000000 129.10000610 -309.13415527 -273.81240082 -208.98701191 -1 -1 -1 
222 5 1 -1.00000000 129.10000610 -306.57894135 -273.78546906 -205.73618603 -1 -1 -1 
223 5 2 1.00000000 128.19999695 -304.61655426 -274.77095795 -202.62897348 -1 -1 -1 
224 5 1 -1.00000000 129.10000610 -303.86261749 -276.85048676 -199.41395903 -1 -1 -1 
225 5 1 -1.00000000 129.10000610 -300.37097168 -275.45700073 -198.22753525 -1 -1 -1 
226 5 2 1.00000000 128.19999695 -298.26066589 -272.77272797 -196.91449356 -1 -1 -1 
227 5 2 1.00000000 128.19999695 -294.45470428 -271.88472748 -197.23683739 -1 -1 -1 
228 5 2 1.00000000 128.19999695 -291.71842194 -273.10837555 -194.69736099 -1 -1 -1 
229 5 2 1.00000000 128.19999695 -290.47265625 -269.92569351 -192.84420872 -1 -1 -1 
230 5 2 1.00000000 128.19999695 -290.66043091 -266.71212006 -195.19100952 -1 -1 -1 
231 5 1 -1.00000000 129.10000610 -288.66979218 -263.76649857 -194.27890873 -1 -1 -1 
232 5 1 -1.00000000 129.10000610 -285.21507263 -263.40373611 -193.86644459 -1 -1 -1 
233 5 1 -1.00000000 129.10000610 -282.25218201 -262.91827393 -196.34456825 -1 -1 -1 
234 5 2 1.00000000 128.19999695 -281.32639313 -259.04473495 -196.95178127 -1 -1 -1 
235 5 2 1.00000000 128.19999695 -284.20559692 -256.85727310 -195.80204487 -1 -1 -1 
236 5 2 1.00000000 128.19999695 -286.94214630 -253.88062286 -195.35881424 -1 -1 -1 
237 5 1 -1.00000000 129.10000610 -285.65200043 -250.38909149 -194.27567673 -1 -1 -1 
238 5 2 1.00000000 128.19999695 -285.24594116 -246.79644012 -194.29426193 -1 -1 -1 
239 5 1 -1.00000000 129.10000610 -286.11347961 -243.39955902 -195.91961098 -1 -1 -1 
240 5 1 -1.00000000 129.10000610 -289.42902374 -241.01068878 -195.95337105 -1 -1 -1 
241 5 1 -1.00000000 129.10000610 -290.00488281 -239.82613373 -192.10559559 -1 -1 -1 
242 5 2 1.00000000 128.19999695 -289.69414520 -242.97972488 -189.58482933 -1 -1 -1 
243 5 1 -1.00000000 129.10000610 -290.43420410 -242.79961014 -185.71392059 -1 -1 -1 
244 5 2 1.00000000 128.19999695 -290.39389801 -245.65790939 -182.94079018 -1 -1 -1 
245 5 2 1.00000000 128.19999695 -290.98418427 -249.12546158 -184.27909088 -1 -1 -1 
246 5 2 1.00000000 128.19999695 -290.71408081 -251.88429642 -186.50480652 -1 -1 -1 
247 5 1 -1.00000000 129.10000610 -291.69385529 -255.39822388 -187.55110168 -1 -1 -1 
248 5 2 1.00000000 128.19999695 -294.00897980 -258.12281799 -189.54910469 -1 -1 -1 
249 5 1 -1.00000000 129.10000610 -296.29835510 -260.30082321 -191.83962154 -1 -1 -1 
250 5 2 1.00000000 128.19999695 -300.00790405 -259.32311630 -192.17430496 -1 -1 -1 
251 6 2 1.00000000 128.19999695 494.39886475 -444.21930695 -97.50705719 2 -2 0 
252 6 1 -1.00000000 129.10000610 491.80348206 -443.44853783 -94.76408386 2 -2 0 
253 6 2 1.00000000 128.19999695 489.60221100 -440.73338509 -93.28703308 2 -2 0 
254 6 2 1.00000000 128.19999695 490.33999634 -440.45025253 -89.79322815 2 -2 0 
255 6 2 1.00000000 128.19999695 490.30105591 -443.40800476 -86.91326141 2 -2 0 
256 6 1 -1.00000000 129.10000610 488.36397552 -445.58663750 -89.54972076 2 -2 0 
257 6 2 1.00000000 128.19999695 490.01081848 -448.82752228 -91.12291718 2 -2 0 
258 6 1 -1.00000000 129.10000610 493.33143616 -450.36246490 -92.54925537 2 -2 0 
259 6 1 -1.00000000 129.10000610 495.91051483 -450.57748795 -95.43981934 2 -2 0 
260 6 1 -1.00000000 129.10000610 498.37397003 -451.98659134 -98.06517029 2 -2 0 
261 6 2 1.00000000 128.19999695 501.37647247 -451.42879868 -100.55248260 2 -2 0 
262 6 1 -1.00000000 129.10000610 501.78726959 -447.79152679 -102.38322449 2 -2 0 
263 6 1 -1.00000000 129.10000610 503.30487061 -446.27818680 -105.25917053 2 -2 -1 
264 6 1 -1.00000000 129.10000610 506.57222748 -447.77972794 -106.21606445 2 -2 -1 
265 6 2 1.00000000 128.19999695 508.44890594 -450.99418259 -104.43204498 2 -2 -1 
266 6 2 1.00000000 128.19999695 509.35084534 -449.78569412 -100.66369629 2 -2 0 
267 6 1 -1.00000000 129.10000610 513.36105347 -449.41613388 -100.69770813 2 -2 0 
268 6 1 -1.00000000 129.10000610 515.20941925 -452.66281128 -100.36835480 2 -2 0 
269 6 2 1.00000000 128.19999695 518.31031799 -453.76071167 -101.27330017 2 -2 0 
270 6 1 -1.00000000 129.10000610 520.12595367 -456.66235352 -100.62368774 3 -2 0 
271 6 1 -1.00000000 129.10000610 518.36038208 -460.02076340 -102.44808960 2 -2 0 
272 6 1 -1.00000000 129.10000610 519.42838287 -461.95716476 -105.99553680 3 -2 -1 
273 6 2 1.00000000 128.19999695 520.53595734 -463.21995926 -109.72279358 3 -2 -1 
274 6 1 -1.00000000 129.10000610 523.52894592 -465.46063232 -108.98987579 3 -2 -1 
275 6 1 -1.00000000 129.10000610 522.25844574 -468.43653107 -107.03775024 3 -2 -1 
276 6 2 1.00000000 128.19999695 522.14263153 -471.68352127 -109.21518707 3 -2 -1 
277 6 2 1.00000000 128.19999695 519.55551910 -473.76489639 -111.37352753 3 -2 -1 
278 6 2 1.00000000 128.19999695 519.41073608 -477.42658615 -111.13247681 3 -2 -1 
279 6 2 1.00000000 128.19999695 519.09602356 -478.58306503 -107.42888641 3 -2 -1 
280 6 2 1.00000000 128.19999695 515.40725708 -480.12755585 -107.17106628 2 -2 -1 
281 6 1 -1.00000000 129.10000610 515.25530243 -483.06676483 -109.37454224 2 -2 -1 
282 6 1 -1.00000000 129.10000610 514.55607605 -485.05335999 -112.58987427 2 -2 -1 
283 6 1 -1.00000000 129.10000610 512.56374359 -488.41194153 -112.16482544 2 -2 -1 
284 6 2 1.00000000 128.19999695 514.13928223 -491.08400726 -110.18197632 2 -2 -1 
285 6 2 1.00000000 128.19999695 517.56193542 -491.15057373 -111.43392181 2 -2 -1 
286 6 2 1.00000000 128.19999695 521.17423248 -491.36701202 -110.64948273 3 -2 -1 
287 6 1 -1.00000000 129.10000610 522.54888916 -488.55708313 -108.25309753 3 -2 -1 
288 6 2 1.00000000 128.19999695 524.84391022 -486.44478607 -106.05353546 3 -2 -1 
289 6 1 -1.00000000 129.10000610 528.05857086 -484.90094757 -104.77210236 3 -2 -1 
290 6 1 -1.00000000 129.10000610 527.98024750 -481.39495850 -106.38060760 3 -2 -1 
291 6 1 -1.00000000 129.10000610 526.71243286 -480.91410828 -109.68461609 3 -2 -1 
292 6 2 1.00000000 128.19999695 523.92670441 -482.63594818 -111.38671875 3 -2 -1 
293 6 1 -1.00000000 129.10000610 525.71105957 -483.96296692 -114.08833313 3 -2 -1 
294 6 2 1.00000000 128.19999695 527.57966614 -487.44734955 -114.95902252 3 -2 -1 
295 6 2 1.00000000 128.19999695 527.64980316 -489.96080017 -112.09707642 3 -2 -1 
296 6 2 1.00000000 128.19999695 528.42835236 -490.65852356 -108.48230743 3 -2 -1 
297 6 1 -1.00000000 129.10000610 527.42013550 -493.43659210 -105.45978546 3 -2 -1 
298 6 2 1.00000000 128.19999695 524.19639587 -494.42385101 -104.20595551 3 -2 -1 
299 6 1 -1.00000000 129.10000610 521.19284058 -492.07448578 -103.17471313 3 -2 0 
300 6 2 1.00000000 128.19999695 522.06405640 -490.31600189 -100.13855743 3 -2 0 
301 7 2 1.00000000 128.19999695 1.54691112 -115.15423584 -814.66022396 0 -1 -4 
302 7 1 -1.00000000 129.10000610 3.93306565 -116.28483582 -812.04195213 0 -1 -4 
303 7 2 1.00000000 128.19999695 6.15918350 -119.16641235 -811.89510536 0 -1 -4 
304 7 2 1.00000000 128.19999695 9.34967422 -120.47752380 -813.89288044 0 -1 -4 
305 7 2 1.00000000 128.19999695 12.07668591 -119.18247223 -816.31657124 0 -1 -4 
306 7 1 -1.00000000 129.10000610 14.79466724 -119.60385132 -818.92838192 0 -1 -4 
307 7 2 1.00000000 128.19999695 18.27257729 -118.85076904 -820.24699688 0 -1 -4 
308 7 1 -1.00000000 129.10000610 20.06214523 -117.10877991 -822.60170031 0 -1 -4 
309 7 1 -1.00000000 129.10000610 23.69031525 -116.31413269 -823.93339968 0 -1 -4 
310 7 1 -1.00000000 129.10000610 25.28281784 -113.56178284 -821.61142349 0 -1 -4 
311 7 2 1.00000000 128.19999695 26.79458427 -113.17447662 -818.29232502 0 -1 -4 
312 7 1 -1.00000000 129.10000610 29.24178696 -114.79016876 -815.87671375 0 -1 -4 
313 7 1 -1.00000000 129.10000610 31.83705330 -114.34661865 -813.22869110 0 -1 -4 
314 7 1 -1.00000000 129.10000610 33.34860229 -115.35255432 -809.91007614 0 -1 -4 
315 7 2 1.00000000 128.19999695 30.42361641 -114.69798279 -807.50066566 0 -1 -4 
316 7 2 1.00000000 128.19999695 26.46044922 -113.71395874 -807.79386330 0 -1 -4 
317 7 1 -1.00000000 129.10000610 26.98811531 -109.95804596 -808.92902374 0 -1 -4 
318 7 1 -1.00000000 129.10000610 24.56527519 -107.85801697 -806.92926407 0 -1 -4 
319 7 2 1.00000000 128.19999695 24.20066833 -105.90549469 -803.68933487 0 -1 -4 
320 7 1 -1.00000000 129.10000610 23.47199631 -107.71222687 -800.14359665 0 -1 -4 
321 7 1 -1.00000000 129.10000610 26.96127129 -107.71640778 -798.38858986 0 -1 -4 
322 7 1 -1.00000000 129.10000610 26.31218910 -108.59957886 -795.03308868 0 -1 -4 
323 7 2 1.00000000 128.19999695 23.00251198 -106.67292023 -794.06194687 0 -1 -4 
324 7 1 -1.00000000 129.10000610 20.68121338 -104.33971405 -796.13792419 0 -1 -4 
325 7 1 -1.00000000 129.10000610 16.93638039 -102.97579193 -796.76258850 0 0 -4 
326 7 2 1.00000000 128.19999695 13.29272270 -104.02272034 -797.43309975 0 -1 -4 
327 7 2 1.00000000 128.19999695 11.15247059 -100.84079742 -795.99565506 0 0 -4 
328 7 2 1.00000000 128.19999695 10.39178371 -97.53775024 -796.74340820 0 0 -4 
329 7 2 1.00000000 128.19999695 10.69555187 -94.02337646 -795.29753876 0 0 -4 
330 7 2 1.00000000 128.19999695 11.16463375 -90.34228516 -795.97427368 0 0 -4 
331 7 1 -1.00000000 129.10000610 13.33208561 -88.57433319 -793.11404800 0 0 -4 
332 7 1 -1.00000000 129.10000610 16.32195282 -86.42056274 -793.03644562 0 0 -4 
333 7 1 -1.00000000 129.10000610 18.38500977 -83.17083740 -792.62096405 0 0 -4 
334 7 2 1.00000000 128.19999695 20.60790253 -80.39178467 -790.76634979 0 0 -4 
335 7 2 1.00000000 128.19999695 18.83501625 -77.04761505 -790.45200348 0 0 -4 
336 7 2 1.00000000 128.19999695 19.90977669 -74.40296936 -792.94168091 0 0 -4 
337 7 1 -1.00000000 129.10000610 19.29330063 -73.78791046 -796.53543472 0 0 -4 
338 7 2 1.00000000 128.19999695 17.96001244 -72.15635681 -799.48752785 0 0 -4 
339 7 1 -1.00000000 129.10000610 21.29398155 -71.75083923 -801.18673706 0 0 -4 
340 7 1 -1.00000000 129.10000610 21.94246483 -74.13533783 -804.09731293 0 0 -4 
341 7 1 -1.00000000 129.10000610 22.88117790 -76.06473541 -807.30944633 0 0 -4 
342 7 2 1.00000000 128.19999695 23.10749626 -73.44612122 -809.76231003 0 0 -4 
343 7 1 -1.00000000 129.10000610 20.24024582 -71.50775909 -808.92662048 0 0 -4 
344 7 2 1.00000000 128.19999695 16.56282616 -71.66098022 -807.13570023 0 0 -4 
345 7 2 1.00000000 128.19999695 14.06754112 -72.34696960 -804.45691490 0 0 -4 
346 7 2 1.00000000 128.19999695 10.98417473 -74.40234375 -804.31300354 0 0 -4 
347 7 1 -1.00000000 129.10000610 9.94429970 -78.26450348 -804.01974106 0 0 -4 
348 7 2 1.00000000 128.19999695 9.27684975 -80.77867126 -806.60927010 0 0 -4 
349 7 1 -1.00000000 129.10000610 6.54677963 -81.38145447 -809.27364349 0 0 -4 
350 7 2 1.00000000 128.19999695 7.97450399 -80.58518982 -812.88908195 0 0 -4 
351 8 2 1.00000000 128.19999695 6.78764439 -240.93157959 639.49826241 0 -1 3 
352 8 1 -1.00000000 129.10000610 7.89891768 -240.66653442 636.08088684 0 -1 3 
353 8 2 1.00000000 128.19999695 9.74056721 -237.38804626 635.36860275 0 -1 3 
354 8 2 1.00000000 128.19999695 9.59578514 -236.20585632 631.96236897 0 -1 3 
355 8 2 1.00000000 128.19999695 10.39184093 -234.23201942 628.64610386 0 -1 3 
356 8 1 -1.00000000 129.10000610 7.73597431 -231.92208290 626.46314096 0 -1 3 
357 8 2 1.00000000 128.19999695 8.05577946 -228.77475929 624.34800363 0 -1 3 
358 8 1 -1.00000000 129.10000610 10.38121128 -227.86790848 621.27275157 0 -1 3 
359 8 1 -1.00000000 129.10000610 9.46881771 -225.67621994 618.47968388 0 -1 3 
360 8 1 -1.00000000 129.10000610 8.98681831 -222.25014973 616.39807367 0 -1 3 
361 8 2 1.00000000 128.19999695 10.38109112 -218.57093811 616.67452812 0 -1 3 
362 8 1 -1.00000000 129.10000610 9.60737514 -215.84890079 613.66265488 0 -1 3 
363 8 1 -1.00000000 129.10000610 7.17960215 -214.61616135 610.58641148 0 -1 3 
364 8 1 -1.00000000 129.10000610 6.16351604 -216.91785812 607.32011700 0 -1 3 
365 8 2 1.00000000 128.19999695 4.45769310 -217.64211845 603.87172890 0 -1 3 
366 8 2 1.00000000 128.19999695 6.56289911 -220.38710976 601.69296074 0 -1 3 
367 8 1 -1.00000000 129.10000610 8.47323799 -222.39694595 599.59194565 0 -1 3 
368 8 1 -1.00000000 129.10000610 12.33521461 -222.77547359 600.50944138 0 -1 3 
369 8 2 1.00000000 128.19999695 14.26736546 -224.21387291 597.35747910 0 -1 3 