ITEM: TIMESTEP
41850000 
ITEM: NUMBER OF ATOMS 
25000 
ITEM: BOX BOUNDS pp pp pp 
-103.678017 103.678017 
-103.678017 103.678017 
-103.678017 103.678017 
ITEM: ATOMS id mol type q mass xu yu zu ix iy iz 
1 1 2 1.00000000 128.19999695 461.20069885 -95.60481262 -207.18835045 2 0 -1 
2 1 1 -1.00000000 129.10000610 459.22249603 -93.30870819 -205.02333570 2 0 -1 
3 1 2 1.00000000 128.19999695 460.76211929 -90.18174744 -203.76511168 2 0 -1 
4 1 2 1.00000000 128.19999695 460.85531998 -87.04402161 -206.18070257 2 0 -1 
5 1 2 1.00000000 128.19999695 458.07214737 -84.89538574 -207.78941235 2 0 -1 
6 1 1 -1.00000000 129.10000610 454.53633881 -84.01971436 -207.47533808 2 0 -1 
7 1 2 1.00000000 128.19999695 451.50172806 -81.89775085 -208.20039922 2 0 -1 
8 1 1 -1.00000000 129.10000610 451.67347717 -78.53826141 -209.91592693 2 0 -1 
9 1 1 -1.00000000 129.10000610 452.41772079 -75.28305817 -211.31853437 2 0 -1 
10 1 1 -1.00000000 129.10000610 449.41551971 -72.75112152 -211.59853268 2 0 -1 
11 1 2 1.00000000 128.19999695 446.73604584 -71.23143768 -213.98765278 2 0 -1 
12 1 1 -1.00000000 129.10000610 444.44514656 -68.83632660 -216.33541679 2 0 -1 
13 1 1 -1.00000000 129.10000610 441.31606865 -69.23352051 -214.21747303 2 0 -1 
14 1 1 -1.00000000 129.10000610 440.26285362 -66.11193085 -212.54447842 2 0 -1 
15 1 2 1.00000000 128.19999695 440.60346222 -62.30009842 -211.81026077 2 0 -1 
16 1 2 1.00000000 128.19999695 440.56394005 -60.63572693 -215.08706379 2 0 -1 
17 1 1 -1.00000000 129.10000610 441.34566307 -57.61058426 -217.29061604 2 0 -1 
18 1 1 -1.00000000 129.10000610 442.29068756 -54.53507233 -219.69706249 2 0 -1 
19 1 2 1.00000000 128.19999695 444.34654617 -51.57337570 -219.45724869 2 0 -1 
20 1 1 -1.00000000 129.10000610 445.17860985 -48.02993774 -218.66372299 2 0 -1 
21 1 1 -1.00000000 129.10000610 446.86463928 -47.79528427 -215.50819206 2 0 -1 
22 1 1 -1.00000000 129.10000610 445.10479355 -49.51457977 -212.89314556 2 0 -1 
23 1 2 1.00000000 128.19999695 444.94659042 -53.08562469 -211.84229136 2 0 -1 
24 1 1 -1.00000000 129.10000610 444.99733353 -56.73025131 -212.63037539 2 0 -1 
25 1 1 -1.00000000 129.10000610 447.04936981 -59.34113312 -214.47234821 2 0 -1 
26 1 2 1.00000000 128.19999695 450.15953064 -60.35400009 -216.35017967 2 0 -1 
27 1 2 1.00000000 128.19999695 452.95421982 -61.58594131 -213.93808222 2 0 -1 
28 1 2 1.00000000 128.19999695 454.25404358 -60.53274918 -210.45099831 2 0 -1 
29 1 2 1.00000000 128.19999695 455.64697647 -58.67860031 -207.67316654 2 0 -1 
30 1 2 1.00000000 128.19999695 454.68165970 -60.67284012 -204.14901423 2 0 -1 
31 1 1 -1.00000000 129.10000610 456.33691406 -62.28601837 -201.33362818 2 0 -1 
32 1 1 -1.00000000 129.10000610 459.46820068 -64.25829315 -200.49884987 2 0 -1 
33 1 1 -1.00000000 129.10000610 459.14085388 -67.74958801 -201.15921593 2 0 -1 
34 1 2 1.00000000 128.19999695 461.49577332 -70.48415375 -201.29907417 2 0 -1 
35 1 2 1.00000000 128.19999695 463.02863312 -70.82440186 -204.52823400 2 0 -1 
36 1 2 1.00000000 128.19999695 465.52703857 -72.83155060 -206.01181543 2 0 -1 
37 1 1 -1.00000000 129.10000610 469.15047836 -73.02178192 -205.01285625 2 0 -1 
38 1 2 1.00000000 128.19999695 471.61273193 -74.48745728 -202.97116852 2 0 -1 
39 1 1 -1.00000000 129.10000610 471.37822723 -77.46572876 -200.42574263 2 0 -1 
40 1 1 -1.00000000 129.10000610 473.40419769 -76.12343597 -197.36832619 2 0 -1 
41 1 1 -1.00000000 129.10000610 475.27315140 -79.49662018 -196.08870792 2 0 -1 
42 1 2 1.00000000 128.19999695 475.92970276 -81.05055237 -198.98991013 2 0 -1 
43 1 1 -1.00000000 129.10000610 477.36184311 -79.50571442 -202.45621061 2 0 -1 
44 1 2 1.00000000 128.19999695 477.99143219 -78.86181641 -206.03484094 2 0 -1 
45 1 2 1.00000000 128.19999695 480.08302307 -76.54553986 -208.77529073 2 0 -1 
46 1 2 1.00000000 128.19999695 481.21472931 -72.61078644 -209.29771852 2 0 -1 
47 1 1 -1.00000000 129.10000610 484.51017761 -70.96401978 -209.12494588 2 0 -1 
48 1 2 1.00000000 128.19999695 488.14849854 -71.52285004 -210.22013855 2 0 -1 
49 1 1 -1.00000000 129.10000610 491.67084503 -72.62480927 -211.95245314 2 0 -1 
50 1 2 1.00000000 128.19999695 494.64057922 -73.44995117 -210.05044127 2 0 -1 
51 2 2 1.00000000 128.19999695 446.49579430 379.52828979 -314.09770966 2 2 -2 
52 2 1 -1.00000000 129.10000610 446.23320198 383.16782761 -315.36563110 2 2 -2 
53 2 2 1.00000000 128.19999695 443.70588493 386.02185249 -314.84306335 2 2 -2 
54 2 2 1.00000000 128.19999695 442.63797569 389.15453529 -316.53916168 2 2 -2 
55 2 2 1.00000000 128.19999695 440.96434593 391.70794296 -313.94249725 2 2 -2 
56 2 1 -1.00000000 129.10000610 438.23200607 389.85208511 -311.99134064 2 2 -2 
57 2 2 1.00000000 128.19999695 434.83833122 387.65138626 -312.67536163 2 2 -2 
58 2 1 -1.00000000 129.10000610 431.87574387 385.15485382 -313.29882050 2 2 -2 
59 2 1 -1.00000000 129.10000610 428.70868301 384.46835327 -314.22422028 2 2 -2 
60 2 1 -1.00000000 129.10000610 425.78398705 381.68544769 -313.64332581 2 2 -2 
61 2 2 1.00000000 128.19999695 424.27054119 379.27540207 -311.12679291 2 2 -2 
62 2 1 -1.00000000 129.10000610 420.54899454 378.01414871 -310.97268677 2 2 -1 
63 2 1 -1.00000000 129.10000610 419.83649206 374.42436218 -309.74489594 2 2 -1 
64 2 1 -1.00000000 129.10000610 423.10537624 372.12464142 -309.84076691 2 2 -1 
65 2 2 1.00000000 128.19999695 425.35768318 369.18835449 -310.79687500 2 2 -1 
66 2 2 1.00000000 128.19999695 428.14192581 366.41443253 -310.62725067 2 2 -1 
67 2 1 -1.00000000 129.10000610 428.21364403 362.67874527 -309.21809387 2 2 -1 
68 2 1 -1.00000000 129.10000610 429.32140636 359.71505356 -307.00175476 2 2 -1 
69 2 2 1.00000000 128.19999695 433.00070190 360.55019760 -306.83506775 2 2 -1 
70 2 1 -1.00000000 129.10000610 434.93303299 363.06954956 -308.78622437 2 2 -1 
71 2 1 -1.00000000 129.10000610 438.65069962 361.82473373 -308.93365479 2 2 -1 
72 2 1 -1.00000000 129.10000610 440.65290260 359.65307999 -306.45516968 2 2 -1 
73 2 2 1.00000000 128.19999695 438.82267761 356.55414963 -304.66422272 2 2 -1 
74 2 1 -1.00000000 129.10000610 436.44772720 354.33439636 -306.44384003 2 2 -1 
75 2 1 -1.00000000 129.10000610 435.72570610 355.14123535 -310.11837006 2 2 -1 
76 2 2 1.00000000 128.19999695 439.05612946 355.41450500 -311.68567657 2 2 -2 
77 2 2 1.00000000 128.19999695 442.51196861 356.99198151 -312.48902893 2 2 -2 
78 2 2 1.00000000 128.19999695 442.25580406 358.98740005 -315.67753601 2 2 -2 
79 2 2 1.00000000 128.19999695 443.72063446 362.62302017 -314.90279388 2 2 -2 
80 2 2 1.00000000 128.19999695 447.17771530 364.13786697 -315.30040741 2 2 -2 
81 2 1 -1.00000000 129.10000610 446.15378380 367.88494873 -315.42223358 2 2 -2 
82 2 1 -1.00000000 129.10000610 449.01965714 370.23345566 -314.47698212 2 2 -2 
83 2 1 -1.00000000 129.10000610 451.14527512 370.12564850 -311.06755066 2 2 -2 
84 2 2 1.00000000 128.19999695 453.79699326 367.19054413 -311.16931915 2 2 -2 
85 2 2 1.00000000 128.19999695 455.41128159 364.58344650 -312.99958801 2 2 -2 
86 2 2 1.00000000 128.19999695 459.12461472 363.58627319 -312.50846100 2 2 -2 
87 2 1 -1.00000000 129.10000610 460.65432358 365.99307251 -315.35037231 2 2 -2 
88 2 2 1.00000000 128.19999695 460.40865707 367.93533325 -318.35870361 2 2 -2 
89 2 1 -1.00000000 129.10000610 462.52422333 367.60087204 -321.60126495 2 2 -2 
90 2 1 -1.00000000 129.10000610 462.50769043 364.33420563 -323.61269379 2 2 -2 
91 2 1 -1.00000000 129.10000610 461.90400314 360.79279327 -322.51164246 2 2 -2 
92 2 2 1.00000000 128.19999695 459.33781815 358.05788040 -321.39171600 2 2 -2 
93 2 1 -1.00000000 129.10000610 459.15353012 354.25896072 -321.52313232 2 2 -2 
94 2 2 1.00000000 128.19999695 460.36411667 350.47314453 -320.92709351 2 2 -2 
95 2 2 1.00000000 128.19999695 458.92721176 349.69030762 -317.18878174 2 2 -2 
96 2 2 1.00000000 128.19999695 455.80886841 351.02915192 -315.70420837 2 2 -2 
97 2 1 -1.00000000 129.10000610 453.17792892 353.91501236 -315.10447693 2 2 -2 
98 2 2 1.00000000 128.19999695 449.85290146 353.01983643 -313.32877350 2 2 -2 
99 2 1 -1.00000000 129.10000610 451.34734344 352.96033478 -309.51583862 2 2 -1 
100 2 2 1.00000000 128.19999695 450.10253906 349.37854767 -308.95298004 2 2 -1 
101 3 2 1.00000000 128.19999695 269.83233643 -147.67905426 59.84732819 1 -1 0 
102 3 1 -1.00000000 129.10000610 269.38111496 -151.40097809 59.94418335 1 -1 0 
103 3 2 1.00000000 128.19999695 268.22080231 -154.26311874 57.43343735 1 -1 0 
104 3 2 1.00000000 128.19999695 271.70023346 -155.51483536 56.08638382 1 -1 0 
105 3 2 1.00000000 128.19999695 274.44633484 -153.70409393 54.53244400 1 -1 0 
106 3 1 -1.00000000 129.10000610 275.16180420 -150.37444305 56.02189636 1 -1 0 
107 3 2 1.00000000 128.19999695 274.24874878 -146.79676437 54.83800125 1 -1 0 
108 3 1 -1.00000000 129.10000610 273.28819275 -144.47706604 52.20541000 1 -1 0 
109 3 1 -1.00000000 129.10000610 270.13714218 -142.71603394 53.51622009 1 -1 0 
110 3 1 -1.00000000 129.10000610 269.27420044 -138.75050354 53.93773270 1 -1 0 
111 3 2 1.00000000 128.19999695 266.92279816 -135.94791412 53.96333694 1 -1 0 
112 3 1 -1.00000000 129.10000610 268.11944580 -132.41194153 54.56455612 1 -1 0 
113 3 1 -1.00000000 129.10000610 266.88586426 -129.46375275 53.56573105 1 -1 0 
114 3 1 -1.00000000 129.10000610 266.01530838 -126.65547943 55.82065201 1 -1 0 
115 3 2 1.00000000 128.19999695 263.90398407 -124.71777344 58.49118805 1 -1 0 
116 3 2 1.00000000 128.19999695 262.92863464 -124.29977417 62.18507385 1 -1 0 
117 3 1 -1.00000000 129.10000610 263.89436722 -121.08565521 63.68606567 1 -1 0 
118 3 1 -1.00000000 129.10000610 266.80601883 -119.26816559 65.38405609 1 -1 0 
119 3 2 1.00000000 128.19999695 270.44398117 -118.50378418 64.73679352 1 -1 0 
120 3 1 -1.00000000 129.10000610 272.59985352 -121.67440033 66.28880310 1 -1 0 
121 3 1 -1.00000000 129.10000610 275.01702118 -124.03561401 64.75457001 1 -1 0 
122 3 1 -1.00000000 129.10000610 277.96640015 -126.76979828 64.52447510 1 -1 0 
123 3 2 1.00000000 128.19999695 278.78583527 -128.20651245 67.91324615 1 -1 0 
124 3 1 -1.00000000 129.10000610 281.43688965 -130.97457886 69.34802246 1 -1 0 
125 3 1 -1.00000000 129.10000610 281.18614960 -130.27510834 72.99210358 1 -1 0 
126 3 2 1.00000000 128.19999695 282.99201965 -127.40107727 74.06962585 1 -1 0 
127 3 2 1.00000000 128.19999695 281.88106537 -124.27225494 72.13922882 1 -1 0 
128 3 2 1.00000000 128.19999695 278.92285156 -121.78608704 72.15108490 1 -1 0 
129 3 2 1.00000000 128.19999695 275.68064117 -119.84976196 71.42404938 1 -1 0 
130 3 2 1.00000000 128.19999695 274.07719421 -116.75931549 72.96074677 1 -1 0 
131 3 1 -1.00000000 129.10000610 276.50124359 -113.86581421 72.65070343 1 -1 0 
132 3 1 -1.00000000 129.10000610 279.99506378 -115.61893463 72.07947540 1 -1 0 
133 3 1 -1.00000000 129.10000610 283.02333069 -115.70304108 70.18380737 1 -1 0 
134 3 2 1.00000000 128.19999695 285.56941986 -116.33429718 67.68299103 1 -1 0 
135 3 2 1.00000000 128.19999695 288.48500824 -118.47804260 68.88591003 1 -1 0 
136 3 2 1.00000000 128.19999695 291.01531219 -116.68458557 71.05541229 1 -1 0 
137 3 1 -1.00000000 129.10000610 289.08803558 -114.29766846 73.50772095 1 -1 0 
138 3 2 1.00000000 128.19999695 288.23426056 -111.86191559 76.09312439 1 -1 0 
139 3 1 -1.00000000 129.10000610 287.40850067 -111.62488556 80.24343872 1 -1 0 
140 3 1 -1.00000000 129.10000610 287.72288513 -112.89366150 83.90225220 1 -1 0 
141 3 1 -1.00000000 129.10000610 284.44996643 -112.24153900 86.14823914 1 -1 0 
142 3 2 1.00000000 128.19999695 285.01266479 -115.16173553 88.31931305 1 -1 0 
143 3 1 -1.00000000 129.10000610 282.06916046 -115.74294281 90.31238556 1 -1 0 
144 3 2 1.00000000 128.19999695 278.60951996 -115.22195435 89.29135895 1 -1 0 
145 3 2 1.00000000 128.19999695 275.66888428 -117.25964355 87.91199493 1 -1 0 
146 3 2 1.00000000 128.19999695 272.60817719 -117.53317261 85.66638947 1 -1 0 
147 3 1 -1.00000000 129.10000610 272.26468658 -117.20469666 82.14270020 1 -1 0 
148 3 2 1.00000000 128.19999695 274.53624725 -116.05028534 79.19190216 1 -1 0 
149 3 1 -1.00000000 129.10000610 277.83406067 -115.35356903 78.37976074 1 -1 0 
150 3 2 1.00000000 128.19999695 278.71715546 -111.58406067 77.99733734 1 -1 0 
151 4 2 1.00000000 128.19999695 -281.02728271 342.21753693 11.84789276 -1 2 0 
152 4 1 -1.00000000 129.10000610 -282.30852509 338.71034241 13.44024658 -1 2 0 
153 4 2 1.00000000 128.19999695 -281.96520996 334.98728943 13.58715343 -1 2 0 
154 4 2 1.00000000 128.19999695 -282.55965424 332.72454071 10.73167419 -1 2 0 
155 4 2 1.00000000 128.19999695 -283.73941803 330.82232666 7.75902891 -1 2 0 
156 4 1 -1.00000000 129.10000610 -283.22195435 329.55120087 4.23224878 -1 2 0 
157 4 2 1.00000000 128.19999695 -281.17226410 331.76968384 1.80568945 -1 2 0 
158 4 1 -1.00000000 129.10000610 -277.75048065 330.80252075 1.23799753 -1 2 0 
159 4 1 -1.00000000 129.10000610 -274.25929260 332.54810333 2.41012073 -1 2 0 
160 4 1 -1.00000000 129.10000610 -271.22586823 330.55565643 3.55596614 -1 2 0 
161 4 2 1.00000000 128.19999695 -268.28028870 329.36323547 1.59168780 -1 2 0 
162 4 1 -1.00000000 129.10000610 -267.90138245 326.55427551 -1.53850412 -1 2 0 
163 4 1 -1.00000000 129.10000610 -266.36141205 323.60326385 -3.44761515 -1 2 0 
164 4 1 -1.00000000 129.10000610 -264.21899796 320.34017181 -2.31682897 -1 2 0 
165 4 2 1.00000000 128.19999695 -260.71213913 321.14923859 -1.22149003 -1 2 0 
166 4 2 1.00000000 128.19999695 -259.85701752 318.86390686 2.10337353 -1 2 0 
167 4 1 -1.00000000 129.10000610 -258.11730576 319.54592133 5.38172960 -1 2 0 
168 4 1 -1.00000000 129.10000610 -258.43918991 320.39723206 8.92179966 -1 2 0 
169 4 2 1.00000000 128.19999695 -257.21627045 320.32971191 12.62906075 -1 2 0 
170 4 1 -1.00000000 129.10000610 -257.23794556 318.66046143 15.75420475 -1 2 0 
171 4 1 -1.00000000 129.10000610 -254.70957184 316.53829956 17.84452438 -1 2 0 
172 4 1 -1.00000000 129.10000610 -255.84780121 313.57147980 19.69075203 -1 2 0 
173 4 2 1.00000000 128.19999695 -256.36215210 315.17371368 23.56541443 -1 2 0 
174 4 1 -1.00000000 129.10000610 -256.31801224 315.50267792 27.14339066 -1 2 0 
175 4 1 -1.00000000 129.10000610 -257.94995880 317.68643951 29.80598068 -1 2 0 
176 4 2 1.00000000 128.19999695 -257.79630661 321.68965149 28.50165939 -1 2 0 
177 4 2 1.00000000 128.19999695 -258.44372940 324.62942505 31.08310127 -1 2 0 
178 4 2 1.00000000 128.19999695 -258.68169022 328.41609192 29.79650879 -1 2 0 
179 4 2 1.00000000 128.19999695 -260.31936264 331.18000793 27.66894531 -1 2 0 
180 4 2 1.00000000 128.19999695 -261.11474609 330.16332245 24.18689156 -1 2 0 
181 4 1 -1.00000000 129.10000610 -261.89519882 326.20214844 23.59219933 -1 2 0 
182 4 1 -1.00000000 129.10000610 -262.94074631 323.57478333 21.11252403 -1 2 0 
183 4 1 -1.00000000 129.10000610 -261.90853500 322.64260864 17.53362274 -1 2 0 
184 4 2 1.00000000 128.19999695 -263.48245621 321.59931946 14.21714783 -1 2 0 
185 4 2 1.00000000 128.19999695 -265.73808670 322.49810028 11.36795330 -1 2 0 
186 4 2 1.00000000 128.19999695 -267.78916931 323.62543488 8.88955784 -1 2 0 
187 4 1 -1.00000000 129.10000610 -268.47558212 327.18713379 8.26946831 -1 2 0 
188 4 2 1.00000000 128.19999695 -270.61240387 329.93285370 9.93162918 -1 2 0 
189 4 1 -1.00000000 129.10000610 -272.67474365 332.72023773 10.62055969 -1 2 0 
190 4 1 -1.00000000 129.10000610 -271.71341705 335.68988037 12.95654202 -1 2 0 
191 4 1 -1.00000000 129.10000610 -268.75923920 337.62345123 13.87210083 -1 2 0 
192 4 2 1.00000000 128.19999695 -265.33721542 338.15917206 11.86193180 -1 2 0 
193 4 1 -1.00000000 129.10000610 -262.68448257 336.79335785 9.18528175 -1 2 0 
194 4 2 1.00000000 128.19999695 -262.90916443 332.90495300 9.25440407 -1 2 0 
195 4 2 1.00000000 128.19999695 -262.96846390 329.75572968 7.24013376 -1 2 0 
196 4 2 1.00000000 128.19999695 -260.95976257 329.16159058 4.13793182 -1 2 0 
197 4 1 -1.00000000 129.10000610 -257.46484375 330.17643738 4.84180498 -1 2 0 
198 4 2 1.00000000 128.19999695 -254.18581009 330.74217987 6.07081890 -1 2 0 
199 4 1 -1.00000000 129.10000610 -252.96049500 334.24556732 6.72971725 -1 2 0 
200 4 2 1.00000000 128.19999695 -252.25056839 336.28763580 9.75948238 -1 2 0 
201 5 2 1.00000000 128.19999695 -301.08046722 -264.48166275 -281.71941376 -1 -1 -1 
202 5 1 -1.00000000 129.10000610 -303.15126801 -267.29108047 -280.31898499 -1 -1 -1 
203 5 2 1.00000000 128.19999695 -306.11688232 -268.87687302 -279.09218597 -1 -1 -1 
204 5 2 1.00000000 128.19999695 -308.78559875 -265.73206711 -278.56819153 -1 -1 -1 
205 5 2 1.00000000 128.19999695 -311.98700714 -263.84042740 -277.41699982 -2 -1 -1 
206 5 1 -1.00000000 129.10000610 -315.16895294 -261.56819916 -277.05443573 -2 -1 -1 
207 5 2 1.00000000 128.19999695 -315.02762604 -259.86776733 -273.49938202 -2 -1 -1 
208 5 1 -1.00000000 129.10000610 -312.10352325 -257.35791397 -273.46318054 -2 -1 -1 
209 5 1 -1.00000000 129.10000610 -309.39945984 -255.37631226 -275.62969208 -1 -1 -1 
210 5 1 -1.00000000 129.10000610 -306.85560608 -254.39175415 -278.22410583 -1 -1 -1 
211 5 2 1.00000000 128.19999695 -308.01882935 -253.07082367 -281.44895172 -1 -1 -1 
212 5 1 -1.00000000 129.10000610 -306.37644958 -252.93400955 -284.42690277 -1 -1 -1 
213 5 1 -1.00000000 129.10000610 -302.61741638 -252.08373642 -283.40403748 -1 -1 -1 
214 5 1 -1.00000000 129.10000610 -299.00427246 -251.81808472 -284.85224152 -1 -1 -1 
215 5 2 1.00000000 128.19999695 -296.51438904 -252.91306305 -281.95498657 -1 -1 -1 
216 5 2 1.00000000 128.19999695 -293.46069336 -254.98610687 -281.78944397 -1 -1 -1 
217 5 1 -1.00000000 129.10000610 -290.20767975 -252.89845657 -282.32337952 -1 -1 -1 
218 5 1 -1.00000000 129.10000610 -289.93744659 -249.16718292 -280.82604980 -1 -1 -1 
219 5 2 1.00000000 128.19999695 -288.72115326 -246.26195145 -278.60453796 -1 -1 -1 
220 5 1 -1.00000000 129.10000610 -285.72882843 -244.77305984 -276.51451874 -1 -1 -1 
221 5 1 -1.00000000 129.10000610 -283.02315521 -242.20913315 -275.64332581 -1 -1 -1 
222 5 1 -1.00000000 129.10000610 -280.16474152 -240.14649963 -274.46891022 -1 -1 -1 
223 5 2 1.00000000 128.19999695 -277.39086151 -242.95079803 -274.56414795 -1 -1 -1 
224 5 1 -1.00000000 129.10000610 -274.30774689 -243.93321609 -276.77844238 -1 -1 -1 
225 5 1 -1.00000000 129.10000610 -273.90550232 -242.43494034 -280.31507111 -1 -1 -1 
226 5 2 1.00000000 128.19999695 -271.20919418 -240.38325882 -282.06211090 -1 -1 -1 
227 5 2 1.00000000 128.19999695 -267.63457489 -240.08816147 -282.58876801 -1 -1 -1 
228 5 2 1.00000000 128.19999695 -265.95746994 -238.72505379 -279.57036591 -1 -1 -1 
229 5 2 1.00000000 128.19999695 -262.46031952 -238.69540024 -277.98998260 -1 -1 -1 
230 5 2 1.00000000 128.19999695 -258.72017288 -238.07639503 -278.94532013 -1 -1 -1 
231 5 1 -1.00000000 129.10000610 -256.09170532 -239.67378616 -280.98191833 -1 -1 -1 
232 5 1 -1.00000000 129.10000610 -257.75772095 -242.25014877 -283.08231354 -1 -1 -1 
233 5 1 -1.00000000 129.10000610 -260.52303696 -243.72571945 -280.85814667 -1 -1 -1 
234 5 2 1.00000000 128.19999695 -260.84536362 -246.51763535 -278.32505798 -1 -1 -1 
235 5 2 1.00000000 128.19999695 -263.69024277 -247.12197113 -275.69464874 -1 -1 -1 
236 5 2 1.00000000 128.19999695 -266.73772049 -247.17871094 -273.21651459 -1 -1 -1 
237 5 1 -1.00000000 129.10000610 -267.03472900 -247.03892899 -269.26705551 -1 -1 -1 
238 5 2 1.00000000 128.19999695 -264.01806259 -247.54077911 -266.97742462 -1 -1 -1 
239 5 1 -1.00000000 129.10000610 -261.25806427 -247.89499664 -264.80062485 -1 -1 -1 
240 5 1 -1.00000000 129.10000610 -257.45179367 -247.06671906 -265.31082916 -1 -1 -1 
241 5 1 -1.00000000 129.10000610 -254.23168182 -246.02634048 -264.59342575 -1 -1 -1 
242 5 2 1.00000000 128.19999695 -251.35044098 -246.82399368 -266.78468323 -1 -1 -1 
243 5 1 -1.00000000 129.10000610 -247.91505432 -248.00848770 -266.14171219 -1 -1 -1 
244 5 2 1.00000000 128.19999695 -245.35869598 -246.15855408 -267.44310379 -1 -1 -1 
245 5 2 1.00000000 128.19999695 -241.76000214 -245.52226639 -267.96012497 -1 -1 -1 
246 5 2 1.00000000 128.19999695 -237.88784790 -245.29273987 -268.60632706 -1 -1 -1 
247 5 1 -1.00000000 129.10000610 -235.12181091 -245.68367004 -271.10405350 -1 -1 -1 
248 5 2 1.00000000 128.19999695 -232.18949509 -246.30622864 -274.00624847 -1 -1 -1 
249 5 1 -1.00000000 129.10000610 -229.00032043 -247.85917282 -272.72196198 -1 -1 -1 
250 5 2 1.00000000 128.19999695 -227.66824150 -250.89728546 -270.96368790 -1 -1 -1 
251 6 2 1.00000000 128.19999695 396.31549644 -363.30262756 -49.71615219 2 -2 0 
252 6 1 -1.00000000 129.10000610 395.66430473 -362.02686310 -53.36566925 2 -2 0 
253 6 2 1.00000000 128.19999695 392.26289368 -362.00729752 -55.16921616 2 -2 0 
254 6 2 1.00000000 128.19999695 389.08555794 -362.38864136 -53.53469467 2 -2 0 
255 6 2 1.00000000 128.19999695 387.71375084 -364.31985092 -50.72008514 2 -2 0 
256 6 1 -1.00000000 129.10000610 386.17857933 -361.20290375 -49.03777695 2 -2 0 
257 6 2 1.00000000 128.19999695 388.64235497 -359.48547363 -47.05131149 2 -2 0 
258 6 1 -1.00000000 129.10000610 387.85265160 -356.46495056 -44.58984756 2 -2 0 
259 6 1 -1.00000000 129.10000610 389.17602158 -355.50862503 -41.33558655 2 -2 0 
260 6 1 -1.00000000 129.10000610 388.05992699 -353.43831635 -38.55892563 2 -2 0 
261 6 2 1.00000000 128.19999695 389.73749924 -353.10391998 -35.22488785 2 -2 0 
262 6 1 -1.00000000 129.10000610 392.39752579 -355.45529938 -33.99888229 2 -2 0 
263 6 1 -1.00000000 129.10000610 396.32350922 -356.01949310 -33.34428406 2 -2 0 
264 6 1 -1.00000000 129.10000610 396.52986145 -356.74502563 -29.35925865 2 -2 0 
265 6 2 1.00000000 128.19999695 396.98286819 -360.14524078 -27.24066544 2 -2 0 
266 6 2 1.00000000 128.19999695 395.45880508 -363.28444290 -25.57026672 2 -2 0 
267 6 1 -1.00000000 129.10000610 397.98894310 -366.07874680 -24.97293091 2 -2 0 
268 6 1 -1.00000000 129.10000610 401.09302425 -365.85000229 -26.66316223 2 -2 0 
269 6 2 1.00000000 128.19999695 404.30139351 -364.03405380 -27.63442993 2 -2 0 
270 6 1 -1.00000000 129.10000610 406.80745506 -365.01401901 -30.40151787 2 -2 0 
271 6 1 -1.00000000 129.10000610 410.16397715 -366.71540451 -30.39134789 2 -2 0 
272 6 1 -1.00000000 129.10000610 412.35080338 -369.61432266 -31.69755363 2 -2 0 
273 6 2 1.00000000 128.19999695 411.89098954 -372.83013916 -33.11083603 2 -2 0 
274 6 1 -1.00000000 129.10000610 410.20869637 -374.24806595 -35.79124451 2 -2 0 
275 6 1 -1.00000000 129.10000610 408.85490179 -377.54219818 -36.74649048 2 -2 0 
276 6 2 1.00000000 128.19999695 409.99814892 -380.47524261 -34.25496292 2 -2 0 
277 6 2 1.00000000 128.19999695 411.37613702 -379.74832153 -30.72650337 2 -2 0 
278 6 2 1.00000000 128.19999695 412.24025774 -378.19138718 -27.25879669 2 -2 0 
279 6 2 1.00000000 128.19999695 413.44826090 -378.52548599 -23.57140541 2 -2 0 
280 6 2 1.00000000 128.19999695 411.24464273 -375.98091888 -21.81783485 2 -2 0 
281 6 1 -1.00000000 129.10000610 407.55904245 -376.47912979 -20.81797600 2 -2 0 
282 6 1 -1.00000000 129.10000610 404.89468670 -377.70867538 -22.69993210 2 -2 0 
283 6 1 -1.00000000 129.10000610 403.46486187 -377.68217850 -26.09681511 2 -2 0 
284 6 2 1.00000000 128.19999695 403.76277351 -374.35828400 -27.67314339 2 -2 0 
285 6 2 1.00000000 128.19999695 404.08233833 -371.65480804 -30.67352295 2 -2 0 
286 6 2 1.00000000 128.19999695 403.15889168 -373.66823959 -33.72185516 2 -2 0 
287 6 1 -1.00000000 129.10000610 402.61394501 -375.64016342 -37.06610107 2 -2 0 
288 6 2 1.00000000 128.19999695 399.85804367 -376.67791748 -39.91445541 2 -2 0 
289 6 1 -1.00000000 129.10000610 398.30303764 -376.59043884 -43.33089828 2 -2 0 
290 6 1 -1.00000000 129.10000610 396.45299149 -373.49785233 -44.62776566 2 -2 0 
291 6 1 -1.00000000 129.10000610 395.47136497 -369.86899185 -43.47996521 2 -2 0 
292 6 2 1.00000000 128.19999695 392.81616592 -367.28118134 -44.97067261 2 -2 0 
293 6 1 -1.00000000 129.10000610 389.90826225 -368.15842438 -41.95072174 2 -2 0 
294 6 2 1.00000000 128.19999695 387.87578583 -365.44586563 -39.43733978 2 -2 0 
295 6 2 1.00000000 128.19999695 388.60700989 -362.34705353 -37.83274460 2 -2 0 
296 6 2 1.00000000 128.19999695 385.84487534 -360.01942444 -36.10946655 2 -2 0 
297 6 1 -1.00000000 129.10000610 383.15067482 -359.35145187 -38.51448059 2 -2 0 
298 6 2 1.00000000 128.19999695 382.16868973 -361.99563980 -41.07886505 2 -2 0 
299 6 1 -1.00000000 129.10000610 379.05653000 -363.35302734 -39.86225128 2 -2 0 
300 6 2 1.00000000 128.19999695 377.36936951 -364.13318634 -36.44964600 2 -2 0 
301 7 2 1.00000000 128.19999695 -42.94741821 4.01341295 -930.16354370 0 0 -4 
302 7 1 -1.00000000 129.10000610 -41.41665649 0.60278177 -930.49864960 0 0 -4 
303 7 2 1.00000000 128.19999695 -42.14963531 -3.01301670 -929.85745239 0 0 -4 
304 7 2 1.00000000 128.19999695 -44.56841660 -5.70664740 -928.20183563 0 0 -4 
305 7 2 1.00000000 128.19999695 -47.19634247 -7.32599831 -926.06636047 0 0 -4 
306 7 1 -1.00000000 129.10000610 -49.92766190 -6.56602955 -923.50368500 0 0 -4 
307 7 2 1.00000000 128.19999695 -52.88534164 -4.42114449 -922.57424164 0 0 -4 
308 7 1 -1.00000000 129.10000610 -56.66199493 -4.12398195 -921.47819519 0 0 -4 
309 7 1 -1.00000000 129.10000610 -59.43224716 -1.83402193 -922.40382385 0 0 -4 
310 7 1 -1.00000000 129.10000610 -60.93607712 1.74357045 -921.22248077 0 0 -4 
311 7 2 1.00000000 128.19999695 -64.58975220 1.63412702 -920.74983215 0 0 -4 
312 7 1 -1.00000000 129.10000610 -65.74382019 -0.30483133 -917.41878510 0 0 -4 
313 7 1 -1.00000000 129.10000610 -64.56172943 0.21187443 -914.26458740 0 0 -4 
314 7 1 -1.00000000 129.10000610 -64.43830109 0.00584554 -910.41362000 0 0 -4 
315 7 2 1.00000000 128.19999695 -63.72843933 -2.65084028 -907.88262177 0 0 -4 
316 7 2 1.00000000 128.19999695 -64.39096069 -6.41466045 -907.03597260 0 0 -4 
317 7 1 -1.00000000 129.10000610 -62.22373199 -9.24477386 -906.04436493 0 0 -4 
318 7 1 -1.00000000 129.10000610 -58.75277710 -10.31903553 -907.23380280 0 0 -4 
319 7 2 1.00000000 128.19999695 -56.09633255 -9.79083252 -910.04920959 0 0 -4 
320 7 1 -1.00000000 129.10000610 -54.00194168 -12.67560863 -911.48209381 0 0 -4 
321 7 1 -1.00000000 129.10000610 -50.14386368 -13.46096420 -911.57226562 0 0 -4 
322 7 1 -1.00000000 129.10000610 -49.95168686 -16.82288361 -909.62953186 0 0 -4 
323 7 2 1.00000000 128.19999695 -53.02044296 -17.72310448 -907.69281769 0 0 -4 
324 7 1 -1.00000000 129.10000610 -53.50017929 -21.06814384 -905.99622345 0 0 -4 
325 7 1 -1.00000000 129.10000610 -52.24260330 -24.55244637 -906.51829529 0 0 -4 
326 7 2 1.00000000 128.19999695 -54.47353745 -27.31013489 -908.32073975 0 0 -4 
327 7 2 1.00000000 128.19999695 -55.88240433 -26.98501015 -912.11379242 0 0 -4 
328 7 2 1.00000000 128.19999695 -55.25220108 -23.48637581 -913.42056274 0 0 -4 
329 7 2 1.00000000 128.19999695 -55.98859787 -22.87945938 -917.06501770 0 0 -4 
330 7 2 1.00000000 128.19999695 -57.58271027 -25.95062828 -918.86982727 0 0 -4 
331 7 1 -1.00000000 129.10000610 -55.33992386 -27.99617958 -920.44632721 0 0 -4 
332 7 1 -1.00000000 129.10000610 -52.64849854 -29.32362938 -918.12296295 0 0 -4 
333 7 1 -1.00000000 129.10000610 -49.02104187 -28.89609528 -917.11498260 0 0 -4 
334 7 2 1.00000000 128.19999695 -45.21152115 -28.79541397 -917.34330750 0 0 -4 
335 7 2 1.00000000 128.19999695 -43.23260498 -28.25686264 -914.22597504 0 0 -4 
336 7 2 1.00000000 128.19999695 -42.55266953 -31.10778427 -911.81877136 0 0 -4 
337 7 1 -1.00000000 129.10000610 -40.54536819 -31.67298317 -908.71462250 0 0 -4 
338 7 2 1.00000000 128.19999695 -37.38925171 -33.61173248 -907.06879425 0 0 -4 
339 7 1 -1.00000000 129.10000610 -33.86872864 -33.21229553 -908.40274811 0 0 -4 
340 7 1 -1.00000000 129.10000610 -31.03980255 -31.09504700 -907.23120880 0 0 -4 
341 7 1 -1.00000000 129.10000610 -27.31765175 -30.34896088 -906.30785370 0 0 -4 
342 7 2 1.00000000 128.19999695 -25.21781731 -27.52513313 -907.52154541 0 0 -4 
343 7 1 -1.00000000 129.10000610 -21.71213150 -26.43572235 -905.71571350 0 0 -4 
344 7 2 1.00000000 128.19999695 -20.14700699 -23.06083488 -906.67966461 0 0 -4 
345 7 2 1.00000000 128.19999695 -16.67304039 -23.17971420 -906.42362976 0 0 -4 
346 7 2 1.00000000 128.19999695 -15.60468292 -26.67398262 -904.93381500 0 0 -4 
347 7 1 -1.00000000 129.10000610 -16.25226974 -29.42575455 -907.47341919 0 0 -4 
348 7 2 1.00000000 128.19999695 -18.47789955 -31.99052811 -907.10929871 0 0 -4 
349 7 1 -1.00000000 129.10000610 -17.69607162 -35.38590622 -908.44523621 0 0 -4 
350 7 2 1.00000000 128.19999695 -17.90009117 -36.85755920 -911.72710419 0 0 -4 
351 8 2 1.00000000 128.19999695 19.79370308 -113.82790375 603.92340469 0 -1 3 
352 8 1 -1.00000000 129.10000610 19.11441231 -117.17430115 604.07274628 0 -1 3 
353 8 2 1.00000000 128.19999695 19.48537636 -118.79190826 607.64534092 0 -1 3 
354 8 2 1.00000000 128.19999695 18.39845848 -121.69686890 610.05138588 0 -1 3 
355 8 2 1.00000000 128.19999695 18.66197968 -123.34131622 613.58318043 0 -1 3 
356 8 1 -1.00000000 129.10000610 21.90094757 -121.64843750 615.10718822 0 -1 3 
357 8 2 1.00000000 128.19999695 24.70591164 -119.35216522 614.27168274 0 -1 3 
358 8 1 -1.00000000 129.10000610 26.00198936 -117.61533356 610.92230511 0 -1 3 
359 8 1 -1.00000000 129.10000610 26.12350273 -113.72635651 609.95125294 0 -1 3 
360 8 1 -1.00000000 129.10000610 28.75709343 -111.48097229 607.91141033 0 -1 3 
361 8 2 1.00000000 128.19999695 29.37426949 -109.03097534 605.28593063 0 -1 3 
362 8 1 -1.00000000 129.10000610 30.40308952 -105.18425751 604.64892197 0 -1 3 
363 8 1 -1.00000000 129.10000610 34.00366592 -104.19919586 605.24350357 0 -1 3 
364 8 1 -1.00000000 129.10000610 36.10952759 -102.29115295 602.58380699 0 0 3 
365 8 2 1.00000000 128.19999695 36.62865448 -98.66001129 601.98956108 0 0 3 
366 8 2 1.00000000 128.19999695 38.22375107 -97.87525940 598.43378448 0 0 3 
367 8 1 -1.00000000 129.10000610 41.97697449 -97.38853455 598.18407822 0 0 3 
368 8 1 -1.00000000 129.10000610 44.93664932 -95.55062866 596.01467705 0 0 3 
369 8 2 1.00000000 128.19999695 48.28019333 -94.37091064 594.97483635 0 0 3 
370 8 1 -1.00000000 129.10000610 51.86493301 -92.64982605 595.09128380 0 0 3 
371 8 1 -1.00000000 129.10000610 50.69407272 -89.50526428 597.16492844 0 0 3 