ITEM: TIMESTEP
41200000 
ITEM: NUMBER OF ATOMS 
25000 
ITEM: BOX BOUNDS pp pp pp 
-103.678017 103.678017 
-103.678017 103.678017 
-103.678017 103.678017 
ITEM: ATOMS id mol type q mass xu yu zu ix iy iz 
1 1 2 1.00000000 128.19999695 397.31748199 40.42552567 -281.68965149 2 0 -1 
2 1 1 -1.00000000 129.10000610 394.47635651 42.28533554 -279.90523529 2 0 -1 
3 1 2 1.00000000 128.19999695 393.64394569 44.60303497 -276.91358948 2 0 -1 
4 1 2 1.00000000 128.19999695 390.96792793 46.06263351 -274.15052795 2 0 -1 
5 1 2 1.00000000 128.19999695 392.21409607 49.04187393 -272.09571075 2 0 -1 
6 1 1 -1.00000000 129.10000610 393.57518768 52.36100769 -272.63134766 2 0 -1 
7 1 2 1.00000000 128.19999695 393.56368446 55.68489838 -271.74024963 2 0 -1 
8 1 1 -1.00000000 129.10000610 395.30599403 58.37708664 -273.17256927 2 0 -1 
9 1 1 -1.00000000 129.10000610 396.36969566 59.82238007 -276.82614136 2 0 -1 
10 1 1 -1.00000000 129.10000610 400.18805695 59.09071350 -277.84029388 2 0 -1 
11 1 2 1.00000000 128.19999695 403.52544403 59.43220520 -276.17089081 2 0 -1 
12 1 1 -1.00000000 129.10000610 406.66640091 57.32614136 -276.70538330 2 0 -1 
13 1 1 -1.00000000 129.10000610 407.10157490 55.00216675 -273.43115234 2 0 -1 
14 1 1 -1.00000000 129.10000610 408.58373404 51.69563293 -275.01418304 2 0 -1 
15 1 2 1.00000000 128.19999695 410.29791927 50.04325104 -272.04693604 2 0 -1 
16 1 2 1.00000000 128.19999695 409.00107002 47.08596420 -270.19271469 2 0 -1 
17 1 1 -1.00000000 129.10000610 410.32479239 44.35098648 -268.01947403 2 0 -1 
18 1 1 -1.00000000 129.10000610 412.77019989 41.38383102 -268.39737701 2 0 -1 
19 1 2 1.00000000 128.19999695 416.12990403 42.17670822 -266.51395416 2 0 -1 
20 1 1 -1.00000000 129.10000610 418.73533392 41.78901291 -269.20920181 2 0 -1 
21 1 1 -1.00000000 129.10000610 421.09586334 43.68467712 -271.65422058 2 0 -1 
22 1 1 -1.00000000 129.10000610 423.71804142 46.30668640 -272.43556976 2 0 -1 
23 1 2 1.00000000 128.19999695 423.71928596 49.15841293 -270.18745041 2 0 -1 
24 1 1 -1.00000000 129.10000610 426.66660309 51.51807785 -270.04304504 2 0 -1 
25 1 1 -1.00000000 129.10000610 426.88629055 54.07828903 -273.03914642 2 0 -1 
26 1 2 1.00000000 128.19999695 427.99058342 52.95303726 -276.54965210 2 0 -1 
27 1 2 1.00000000 128.19999695 426.00948048 49.95576859 -277.28764343 2 0 -1 
28 1 2 1.00000000 128.19999695 424.90371418 47.99525070 -280.41663361 2 0 -1 
29 1 2 1.00000000 128.19999695 424.99392796 44.19568634 -281.52281189 2 0 -1 
30 1 2 1.00000000 128.19999695 423.27128506 42.64386368 -284.63345337 2 0 -1 
31 1 1 -1.00000000 129.10000610 424.05961800 43.70307159 -288.10036469 2 0 -1 
32 1 1 -1.00000000 129.10000610 423.47260666 42.31977463 -291.72241211 2 0 -1 
33 1 1 -1.00000000 129.10000610 423.51196194 41.10289383 -295.15006256 2 0 -1 
34 1 2 1.00000000 128.19999695 422.19843006 39.72616196 -298.08090210 2 0 -1 
35 1 2 1.00000000 128.19999695 419.78683329 41.95232391 -299.91810608 2 0 -1 
36 1 2 1.00000000 128.19999695 418.16355062 45.24816895 -300.01209259 2 0 -1 
37 1 1 -1.00000000 129.10000610 417.27623463 48.91341019 -300.02058411 2 0 -1 
38 1 2 1.00000000 128.19999695 413.14090419 49.17669678 -300.39046478 2 0 -1 
39 1 1 -1.00000000 129.10000610 410.29444504 47.17346191 -301.10971832 2 0 -1 
40 1 1 -1.00000000 129.10000610 407.79312038 44.94761658 -298.78272247 2 0 -1 
41 1 1 -1.00000000 129.10000610 404.31820869 45.42762375 -300.54869843 2 0 -1 
42 1 2 1.00000000 128.19999695 402.05156326 42.20860291 -302.13836670 2 0 -1 
43 1 1 -1.00000000 129.10000610 400.18959332 40.02322388 -299.76406097 2 0 -1 
44 1 2 1.00000000 128.19999695 397.15795708 38.49928284 -298.49078369 2 0 -1 
45 1 2 1.00000000 128.19999695 395.63202477 35.76840210 -296.11729431 2 0 -1 
46 1 2 1.00000000 128.19999695 395.97173882 35.44261932 -292.28739166 2 0 -1 
47 1 1 -1.00000000 129.10000610 397.67389870 38.95644760 -292.13657379 2 0 -1 
48 1 2 1.00000000 128.19999695 398.65346336 41.70353699 -289.93525696 2 0 -1 
49 1 1 -1.00000000 129.10000610 398.12857819 43.95190811 -286.99489594 2 0 -1 
50 1 2 1.00000000 128.19999695 398.65570068 47.97337341 -287.84626770 2 0 -1 
51 2 2 1.00000000 128.19999695 456.29873276 352.20182037 -238.80480385 2 2 -1 
52 2 1 -1.00000000 129.10000610 452.83387375 352.59074402 -238.88694191 2 2 -1 
53 2 2 1.00000000 128.19999695 449.01227188 352.22080994 -239.42280960 2 2 -1 
54 2 2 1.00000000 128.19999695 446.52863693 351.15256119 -242.12033081 2 2 -1 
55 2 2 1.00000000 128.19999695 444.78503036 353.10994720 -244.96989441 2 2 -1 
56 2 1 -1.00000000 129.10000610 442.76141739 352.98609543 -248.31697083 2 2 -1 
57 2 2 1.00000000 128.19999695 441.88209534 356.66617203 -249.34531021 2 2 -1 
58 2 1 -1.00000000 129.10000610 438.68399429 358.02488708 -251.59592056 2 2 -1 
59 2 1 -1.00000000 129.10000610 435.89089012 355.34297562 -250.42278671 2 2 -1 
60 2 1 -1.00000000 129.10000610 433.90531731 354.21641159 -253.03268051 2 2 -1 
61 2 2 1.00000000 128.19999695 432.72478676 352.46741867 -256.30088043 2 2 -1 
62 2 1 -1.00000000 129.10000610 430.43776226 350.37058258 -258.85873413 2 2 -1 
63 2 1 -1.00000000 129.10000610 427.09383488 350.52787781 -260.61440277 2 2 -1 
64 2 1 -1.00000000 129.10000610 424.12849522 351.04914474 -258.26158905 2 2 -1 
65 2 2 1.00000000 128.19999695 420.45601320 349.90643311 -258.34004974 2 2 -1 
66 2 2 1.00000000 128.19999695 418.12325215 348.70331573 -255.65876770 2 2 -1 
67 2 1 -1.00000000 129.10000610 417.86299515 346.55203247 -252.80036545 2 2 -1 
68 2 1 -1.00000000 129.10000610 415.75844193 346.59969330 -249.63213730 2 2 -1 
69 2 2 1.00000000 128.19999695 417.72211647 347.81893921 -246.61682892 2 2 -1 
70 2 1 -1.00000000 129.10000610 420.90030575 349.41030121 -246.52777100 2 2 -1 
71 2 1 -1.00000000 129.10000610 422.43596315 348.82141876 -242.88348389 2 2 -1 
72 2 1 -1.00000000 129.10000610 424.45595741 345.32453156 -241.81357193 2 2 -1 
73 2 2 1.00000000 128.19999695 426.21430779 344.43993378 -244.97217178 2 2 -1 
74 2 1 -1.00000000 129.10000610 429.50489998 343.91944885 -246.69141769 2 2 -1 
75 2 1 -1.00000000 129.10000610 429.54914570 345.85221100 -249.91100693 2 2 -1 
76 2 2 1.00000000 128.19999695 431.09478378 349.16378784 -250.32905960 2 2 -1 
77 2 2 1.00000000 128.19999695 433.81770897 350.22048950 -247.58638000 2 2 -1 
78 2 2 1.00000000 128.19999695 433.44383621 352.49427795 -244.81219864 2 2 -1 
79 2 2 1.00000000 128.19999695 432.73586273 352.33402252 -241.21827316 2 2 -1 
80 2 2 1.00000000 128.19999695 431.93426323 354.54771423 -238.47482109 2 2 -1 
81 2 1 -1.00000000 129.10000610 433.32024384 356.46568680 -235.68708229 2 2 -1 
82 2 1 -1.00000000 129.10000610 435.20659447 357.63193512 -232.65247536 2 2 -1 
83 2 1 -1.00000000 129.10000610 435.18857956 359.18293381 -229.32591248 2 2 -1 
84 2 2 1.00000000 128.19999695 431.88484955 358.97464371 -227.47250366 2 2 -1 
85 2 2 1.00000000 128.19999695 428.91785717 356.69474411 -226.16160965 2 2 -1 
86 2 2 1.00000000 128.19999695 427.45518875 353.78668213 -228.45601463 2 2 -1 
87 2 1 -1.00000000 129.10000610 428.72666931 352.63787460 -231.82328415 2 2 -1 
88 2 2 1.00000000 128.19999695 426.89931488 351.31751251 -234.88894081 2 2 -1 
89 2 1 -1.00000000 129.10000610 427.98565292 348.26324463 -236.91081238 2 2 -1 
90 2 1 -1.00000000 129.10000610 431.24873161 346.49113464 -237.73771477 2 2 -1 
91 2 1 -1.00000000 129.10000610 434.02780724 345.06374359 -236.44806862 2 2 -1 
92 2 2 1.00000000 128.19999695 433.62405777 344.52847290 -232.70926857 2 2 -1 
93 2 1 -1.00000000 129.10000610 432.12243271 341.68001556 -230.60488701 2 2 -1 
94 2 2 1.00000000 128.19999695 430.12354088 342.47864532 -227.21560287 2 2 -1 
95 2 2 1.00000000 128.19999695 427.92244148 339.84971619 -226.36126900 2 2 -1 
96 2 2 1.00000000 128.19999695 424.39958954 340.14199066 -227.89285088 2 2 -1 
97 2 1 -1.00000000 129.10000610 422.31275797 338.73735046 -224.83669090 2 2 -1 
98 2 2 1.00000000 128.19999695 419.22918367 340.97696686 -224.28843689 2 2 -1 
99 2 1 -1.00000000 129.10000610 416.38644695 343.34780121 -224.26168823 2 2 -1 
100 2 2 1.00000000 128.19999695 416.50764954 344.17842102 -220.16477108 2 2 -1 
101 3 2 1.00000000 128.19999695 337.40662384 -91.28063965 38.98090363 2 0 0 
102 3 1 -1.00000000 129.10000610 337.97270966 -88.48944092 36.45622635 2 0 0 
103 3 2 1.00000000 128.19999695 341.30669403 -87.36513519 34.74778748 2 0 0 
104 3 2 1.00000000 128.19999695 345.12405396 -87.69235992 36.07524872 2 0 0 
105 3 2 1.00000000 128.19999695 345.61415100 -90.40015411 38.67568207 2 0 0 
106 3 1 -1.00000000 129.10000610 345.03535461 -94.10321808 39.60418701 2 0 0 
107 3 2 1.00000000 128.19999695 341.77523804 -95.82626343 41.35319901 2 0 0 
108 3 1 -1.00000000 129.10000610 342.32970428 -93.99369049 44.67642212 2 0 0 
109 3 1 -1.00000000 129.10000610 344.38890076 -92.55873871 47.81970215 2 0 0 
110 3 1 -1.00000000 129.10000610 346.82105255 -90.33110046 49.02392578 2 0 0 
111 3 2 1.00000000 128.19999695 347.87298584 -87.11541748 46.73250580 2 0 0 
112 3 1 -1.00000000 129.10000610 350.40297699 -85.65812683 43.77863693 2 0 0 
113 3 1 -1.00000000 129.10000610 352.31795502 -88.12738800 41.49686432 2 0 0 
114 3 1 -1.00000000 129.10000610 355.30939865 -89.93724060 39.82886505 2 0 0 
115 3 2 1.00000000 128.19999695 354.48454285 -93.50078583 40.91008759 2 0 0 
116 3 2 1.00000000 128.19999695 350.64237976 -94.61011505 39.86011887 2 0 0 
117 3 1 -1.00000000 129.10000610 351.30469513 -98.32226562 39.61667252 2 0 0 
118 3 1 -1.00000000 129.10000610 351.42240524 -99.98209381 36.09604645 2 0 0 
119 3 2 1.00000000 128.19999695 350.25720978 -98.99263763 32.49028015 2 0 0 
120 3 1 -1.00000000 129.10000610 352.47089767 -96.20673370 30.87660408 2 0 0 
121 3 1 -1.00000000 129.10000610 350.73617554 -93.00025177 30.55525589 2 0 0 
122 3 1 -1.00000000 129.10000610 347.10673523 -93.64958191 30.38833427 2 0 0 
123 3 2 1.00000000 128.19999695 345.26500702 -92.06478882 27.54022217 2 0 0 
124 3 1 -1.00000000 129.10000610 341.57609558 -91.53900146 28.51247597 2 0 0 
125 3 1 -1.00000000 129.10000610 337.70661926 -91.22674561 29.58724785 2 0 0 
126 3 2 1.00000000 128.19999695 335.45487976 -92.48622894 26.62240410 2 0 0 
127 3 2 1.00000000 128.19999695 332.32469940 -94.72058105 26.37877464 2 0 0 
128 3 2 1.00000000 128.19999695 329.08141327 -95.25040436 27.75780296 2 0 0 
129 3 2 1.00000000 128.19999695 326.49636078 -93.07730103 26.09071922 2 0 0 
130 3 2 1.00000000 128.19999695 324.38481140 -94.95178223 23.50714302 2 0 0 
131 3 1 -1.00000000 129.10000610 320.89122772 -95.62085724 22.19019127 2 0 0 
132 3 1 -1.00000000 129.10000610 318.08498383 -93.28807068 20.66357613 2 0 0 
133 3 1 -1.00000000 129.10000610 314.87973022 -92.16691589 22.75864029 2 0 0 
134 3 2 1.00000000 128.19999695 311.62622833 -90.15543365 24.24505234 2 0 0 
135 3 2 1.00000000 128.19999695 307.95344543 -90.43251801 25.22462654 1 0 0 
136 3 2 1.00000000 128.19999695 305.65779877 -91.24421692 27.96103096 1 0 0 
137 3 1 -1.00000000 129.10000610 305.47570038 -87.92081451 30.31428146 1 0 0 
138 3 2 1.00000000 128.19999695 304.74967957 -84.35593414 31.27014351 1 0 0 
139 3 1 -1.00000000 129.10000610 305.49092102 -82.68272400 28.06926537 1 0 0 
140 3 1 -1.00000000 129.10000610 305.42987823 -81.01399994 24.55795479 1 0 0 
141 3 1 -1.00000000 129.10000610 302.60655212 -79.81090546 22.50299454 1 0 0 
142 3 2 1.00000000 128.19999695 300.76480865 -76.95693207 20.62620354 1 0 0 
143 3 1 -1.00000000 129.10000610 299.84346008 -76.13712311 17.28112030 1 0 0 
144 3 2 1.00000000 128.19999695 298.91067505 -78.21212769 13.99735832 1 0 0 
145 3 2 1.00000000 128.19999695 295.86132050 -77.23888397 11.60361195 1 0 0 
146 3 2 1.00000000 128.19999695 292.28981018 -76.79084778 13.17151260 1 0 0 
147 3 1 -1.00000000 129.10000610 291.16173553 -77.99156189 16.22946739 1 0 0 
148 3 2 1.00000000 128.19999695 288.76732635 -81.01950073 16.51929474 1 0 0 
149 3 1 -1.00000000 129.10000610 285.74153900 -82.81524658 18.09246635 1 0 0 
150 3 2 1.00000000 128.19999695 282.47221375 -83.29257202 16.38682175 1 0 0 
151 4 2 1.00000000 128.19999695 -284.89608765 342.77826691 34.70506287 -1 2 0 
152 4 1 -1.00000000 129.10000610 -285.40660095 339.16934967 33.76552200 -1 2 0 
153 4 2 1.00000000 128.19999695 -285.90601349 336.19099426 31.19864845 -1 2 0 
154 4 2 1.00000000 128.19999695 -289.27140045 334.46960449 30.82867050 -1 2 0 
155 4 2 1.00000000 128.19999695 -292.02974701 335.34211731 33.36952209 -1 2 0 
156 4 1 -1.00000000 129.10000610 -295.28859711 335.37522888 31.39702606 -1 2 0 
157 4 2 1.00000000 128.19999695 -298.71659851 335.66949463 32.72124863 -1 2 0 
158 4 1 -1.00000000 129.10000610 -301.48615265 334.06893921 30.86781883 -1 2 0 
159 4 1 -1.00000000 129.10000610 -300.99938202 330.56927490 30.03437042 -1 2 0 
160 4 1 -1.00000000 129.10000610 -298.02407837 328.03355408 31.38447762 -1 2 0 
161 4 2 1.00000000 128.19999695 -295.24945068 326.41754913 33.73191071 -1 2 0 
162 4 1 -1.00000000 129.10000610 -292.44113159 324.19234467 34.85180664 -1 2 0 
163 4 1 -1.00000000 129.10000610 -291.22475433 320.46313477 34.83979797 -1 2 0 
164 4 1 -1.00000000 129.10000610 -287.60577393 320.03999329 33.58815384 -1 2 0 
165 4 2 1.00000000 128.19999695 -286.04768372 316.28769684 34.23435211 -1 2 0 
166 4 2 1.00000000 128.19999695 -287.61954498 313.13365936 32.39291763 -1 2 0 
167 4 1 -1.00000000 129.10000610 -289.49427795 310.29144287 34.97999573 -1 1 0 
168 4 1 -1.00000000 129.10000610 -292.56640625 309.19944000 32.93132782 -1 1 0 
169 4 2 1.00000000 128.19999695 -294.70276642 310.13153839 29.76673317 -1 1 0 
170 4 1 -1.00000000 129.10000610 -296.24729156 309.25366211 26.57917595 -1 1 0 
171 4 1 -1.00000000 129.10000610 -298.03964996 308.79165649 23.25387383 -1 1 0 
172 4 1 -1.00000000 129.10000610 -295.66361237 308.52319336 20.17814445 -1 1 0 
173 4 2 1.00000000 128.19999695 -291.91421509 307.02849579 20.01003838 -1 1 0 
174 4 1 -1.00000000 129.10000610 -288.27283478 305.74581146 18.90750504 -1 1 0 
175 4 1 -1.00000000 129.10000610 -288.42214966 302.07794952 17.85439301 -1 1 0 
176 4 2 1.00000000 128.19999695 -291.24317169 300.90334320 15.77503490 -1 1 0 
177 4 2 1.00000000 128.19999695 -292.57380676 301.41129303 12.20721054 -1 1 0 
178 4 2 1.00000000 128.19999695 -294.99959564 298.55354309 11.09381580 -1 1 0 
179 4 2 1.00000000 128.19999695 -296.84829712 295.11542511 11.20907784 -1 1 0 
180 4 2 1.00000000 128.19999695 -300.17445374 294.49976349 9.34772968 -1 1 0 
181 4 1 -1.00000000 129.10000610 -302.95771790 292.94738007 7.53714895 -1 1 0 
182 4 1 -1.00000000 129.10000610 -304.10368347 289.39472961 7.75600576 -1 1 0 
183 4 1 -1.00000000 129.10000610 -302.02940369 286.59246826 5.91067457 -1 1 0 
184 4 2 1.00000000 128.19999695 -304.64503479 283.98913574 4.89664745 -1 1 0 
185 4 2 1.00000000 128.19999695 -303.21875000 281.70240021 1.66917026 -1 1 0 
186 4 2 1.00000000 128.19999695 -304.62620544 278.32089233 2.17644835 -1 1 0 
187 4 1 -1.00000000 129.10000610 -307.91158295 278.68123627 4.12467146 -1 1 0 
188 4 2 1.00000000 128.19999695 -310.20780182 276.17029572 5.69992495 -1 1 0 
189 4 1 -1.00000000 129.10000610 -309.31728363 277.37727356 9.31932545 -1 1 0 
190 4 1 -1.00000000 129.10000610 -308.38534546 275.51011658 12.14170742 -1 1 0 
191 4 1 -1.00000000 129.10000610 -307.80099487 278.17079926 14.72800827 -1 1 0 
192 4 2 1.00000000 128.19999695 -307.57579041 281.74523163 15.64683342 -1 1 0 
193 4 1 -1.00000000 129.10000610 -309.57560730 283.85820770 12.85310650 -1 1 0 
194 4 2 1.00000000 128.19999695 -311.64099884 282.97283936 9.62241745 -2 1 0 
195 4 2 1.00000000 128.19999695 -313.99470520 282.84054565 7.13959551 -2 1 0 
196 4 2 1.00000000 128.19999695 -317.70452881 283.09265137 6.15260649 -2 1 0 
197 4 1 -1.00000000 129.10000610 -319.90999603 286.26058960 7.34651518 -2 1 0 
198 4 2 1.00000000 128.19999695 -323.55436707 286.88304138 7.54896402 -2 1 0 
199 4 1 -1.00000000 129.10000610 -326.14857483 286.75567627 4.71626282 -2 1 0 
200 4 2 1.00000000 128.19999695 -328.58657837 289.57452393 3.41993332 -2 1 0 
201 5 2 1.00000000 128.19999695 -317.86704254 -236.85955048 -189.90566254 -2 -1 -1 
202 5 1 -1.00000000 129.10000610 -318.23451233 -236.34584999 -193.53873730 -2 -1 -1 
203 5 2 1.00000000 128.19999695 -319.39392853 -234.30627823 -196.58604527 -2 -1 -1 
204 5 2 1.00000000 128.19999695 -318.06827545 -235.71536064 -199.82857132 -2 -1 -1 
205 5 2 1.00000000 128.19999695 -315.14160919 -237.71285248 -199.32216167 -2 -1 -1 
206 5 1 -1.00000000 129.10000610 -312.26914978 -239.49058914 -201.54173374 -2 -1 -1 
207 5 2 1.00000000 128.19999695 -313.30181122 -241.67230606 -204.63539839 -2 -1 -1 
208 5 1 -1.00000000 129.10000610 -312.81787872 -241.39720535 -208.30417651 -2 -1 -1 
209 5 1 -1.00000000 129.10000610 -311.31195068 -239.16956902 -211.08966637 -2 -1 -1 
210 5 1 -1.00000000 129.10000610 -308.21269226 -237.18733406 -211.43769693 -1 -1 -1 
211 5 2 1.00000000 128.19999695 -308.52237701 -234.08876228 -213.53572893 -1 -1 -1 
212 5 1 -1.00000000 129.10000610 -311.66960144 -234.04179955 -216.13354397 -2 -1 -1 
213 5 1 -1.00000000 129.10000610 -314.44076538 -234.26171112 -218.61026764 -2 -1 -1 
214 5 1 -1.00000000 129.10000610 -313.06029510 -232.71838951 -221.76389980 -2 -1 -1 
215 5 2 1.00000000 128.19999695 -314.53378296 -230.42630768 -224.28401947 -2 -1 -1 
216 5 2 1.00000000 128.19999695 -313.85887146 -226.64352608 -223.79759789 -2 -1 -1 
217 5 1 -1.00000000 129.10000610 -314.82200623 -223.81567955 -225.91908646 -2 -1 -1 
218 5 1 -1.00000000 129.10000610 -313.42021179 -223.16441822 -229.25234413 -2 -1 -1 
219 5 2 1.00000000 128.19999695 -310.39682007 -221.19231606 -230.30222893 -1 -1 -1 
220 5 1 -1.00000000 129.10000610 -311.56775665 -219.70464134 -233.84641457 -2 -1 -1 
221 5 1 -1.00000000 129.10000610 -312.35657501 -221.22809029 -237.19554710 -2 -1 -1 
222 5 1 -1.00000000 129.10000610 -311.47814941 -221.36600113 -241.09331894 -2 -1 -1 
223 5 2 1.00000000 128.19999695 -313.35536957 -218.43688202 -242.60989761 -2 -1 -1 
224 5 1 -1.00000000 129.10000610 -312.20673370 -216.53068924 -245.69723892 -2 -1 -1 
225 5 1 -1.00000000 129.10000610 -311.58294678 -215.84622574 -249.38861084 -2 -1 -1 
226 5 2 1.00000000 128.19999695 -309.38357544 -215.08597040 -252.36475754 -1 -1 -1 
227 5 2 1.00000000 128.19999695 -309.54344940 -217.54020214 -255.77723312 -1 -1 -1 
228 5 2 1.00000000 128.19999695 -307.99170685 -216.96347141 -259.34108734 -1 -1 -1 
229 5 2 1.00000000 128.19999695 -305.78050232 -220.26842594 -260.34874725 -1 -1 -1 
230 5 2 1.00000000 128.19999695 -302.49440002 -221.46470833 -258.71813202 -1 -1 -1 
231 5 1 -1.00000000 129.10000610 -299.04595947 -220.15496540 -259.08273315 -1 -1 -1 
232 5 1 -1.00000000 129.10000610 -297.40901947 -223.14363384 -260.89822388 -1 -1 -1 
233 5 1 -1.00000000 129.10000610 -293.93730164 -224.65616989 -259.83716202 -1 -1 -1 
234 5 2 1.00000000 128.19999695 -290.20363617 -224.62040329 -258.56641388 -1 -1 -1 
235 5 2 1.00000000 128.19999695 -288.12183380 -227.71513176 -257.96900940 -1 -1 -1 
236 5 2 1.00000000 128.19999695 -284.85430908 -229.60046577 -259.05132675 -1 -1 -1 
237 5 1 -1.00000000 129.10000610 -282.13655853 -231.01829529 -261.32417679 -1 -1 -1 
238 5 2 1.00000000 128.19999695 -282.90678406 -234.76939774 -261.63734055 -1 -1 -1 
239 5 1 -1.00000000 129.10000610 -283.69448090 -235.13303185 -265.53533936 -1 -1 -1 
240 5 1 -1.00000000 129.10000610 -281.03066254 -232.89862633 -267.07590866 -1 -1 -1 
241 5 1 -1.00000000 129.10000610 -281.77552032 -230.97684097 -270.33899307 -1 -1 -1 
242 5 2 1.00000000 128.19999695 -285.09263611 -230.90817070 -272.11574554 -1 -1 -1 
243 5 1 -1.00000000 129.10000610 -287.62462616 -233.38269997 -272.58629608 -1 -1 -1 
244 5 2 1.00000000 128.19999695 -291.22172546 -231.59260178 -272.44112396 -1 -1 -1 
245 5 2 1.00000000 128.19999695 -294.61660767 -230.62416077 -273.90653229 -1 -1 -1 
246 5 2 1.00000000 128.19999695 -294.83670807 -229.27515411 -277.43183899 -1 -1 -1 
247 5 1 -1.00000000 129.10000610 -294.80078125 -229.35053062 -281.29254913 -1 -1 -1 
248 5 2 1.00000000 128.19999695 -298.22535706 -231.28148842 -282.02613831 -1 -1 -1 
249 5 1 -1.00000000 129.10000610 -301.08954620 -232.75296783 -279.65436554 -1 -1 -1 
250 5 2 1.00000000 128.19999695 -301.35882568 -230.67986679 -276.51192474 -1 -1 -1 
251 6 2 1.00000000 128.19999695 416.18184984 -400.42206001 31.01926231 2 -2 0 
252 6 1 -1.00000000 129.10000610 412.89594936 -400.40153027 32.61935043 2 -2 0 
253 6 2 1.00000000 128.19999695 409.71198177 -399.21319962 31.39773560 2 -2 0 
254 6 2 1.00000000 128.19999695 407.08257055 -396.33690071 30.90307236 2 -2 0 
255 6 2 1.00000000 128.19999695 405.22835255 -393.34825897 30.06888390 2 -2 0 
256 6 1 -1.00000000 129.10000610 403.04463196 -395.38236809 27.25960922 2 -2 0 
257 6 2 1.00000000 128.19999695 402.01151466 -396.77448273 23.86136436 2 -2 0 
258 6 1 -1.00000000 129.10000610 401.26025486 -399.91182423 21.69810677 2 -2 0 
259 6 1 -1.00000000 129.10000610 401.68480015 -403.07977676 19.95947075 2 -2 0 
260 6 1 -1.00000000 129.10000610 403.47336578 -402.88869190 16.51270676 2 -2 0 
261 6 2 1.00000000 128.19999695 402.87261772 -405.15787125 13.44502544 2 -2 0 
262 6 1 -1.00000000 129.10000610 405.66608715 -407.98884344 12.80594158 2 -2 0 
263 6 1 -1.00000000 129.10000610 408.94653654 -406.77331972 13.09259510 2 -2 0 
264 6 1 -1.00000000 129.10000610 410.62179661 -403.58014584 12.12627125 2 -2 0 
265 6 2 1.00000000 128.19999695 411.46324587 -399.90534782 11.17715168 2 -2 0 
266 6 2 1.00000000 128.19999695 413.87250096 -398.15179825 8.60067940 2 -2 0 
267 6 1 -1.00000000 129.10000610 413.68671370 -397.64034462 4.93042469 2 -2 0 
268 6 1 -1.00000000 129.10000610 416.42208970 -395.00053596 4.44200039 2 -2 0 
269 6 2 1.00000000 128.19999695 418.69864392 -392.90607643 2.21928716 2 -2 0 
270 6 1 -1.00000000 129.10000610 418.64099550 -393.15711212 -2.04834509 2 -2 0 
271 6 1 -1.00000000 129.10000610 415.33110350 -392.89225578 -3.51214981 2 -2 0 
272 6 1 -1.00000000 129.10000610 413.76148081 -392.79082489 -7.13836575 2 -2 0 
273 6 2 1.00000000 128.19999695 412.26323318 -396.20791245 -7.42510653 2 -2 0 
274 6 1 -1.00000000 129.10000610 414.59975559 -399.20684052 -7.88081598 2 -2 0 
275 6 1 -1.00000000 129.10000610 417.29113030 -401.03823280 -9.71205616 2 -2 0 
276 6 2 1.00000000 128.19999695 419.74192762 -402.18808651 -12.63612938 2 -2 0 
277 6 2 1.00000000 128.19999695 418.89449215 -403.80625057 -15.99294758 2 -2 0 
278 6 2 1.00000000 128.19999695 419.51814938 -405.34176350 -19.91282654 2 -2 0 
279 6 2 1.00000000 128.19999695 418.92365026 -404.38402271 -23.49803352 2 -2 0 
280 6 2 1.00000000 128.19999695 417.80139327 -406.40741825 -26.70195580 2 -2 0 
281 6 1 -1.00000000 129.10000610 420.32856655 -405.53236294 -29.53730965 2 -2 0 
282 6 1 -1.00000000 129.10000610 418.90871429 -406.30719566 -32.93368530 2 -2 0 
283 6 1 -1.00000000 129.10000610 416.09630239 -406.45631504 -35.21545792 2 -2 0 
284 6 2 1.00000000 128.19999695 413.19178581 -404.29106140 -36.75671768 2 -2 0 
285 6 2 1.00000000 128.19999695 413.25149310 -401.16628265 -34.07610321 2 -2 0 
286 6 2 1.00000000 128.19999695 413.98920238 -397.18845177 -33.79020309 2 -2 0 
287 6 1 -1.00000000 129.10000610 413.07835150 -393.55517006 -35.82738876 2 -2 0 
288 6 2 1.00000000 128.19999695 413.66482580 -393.81668282 -39.93410110 2 -2 0 
289 6 1 -1.00000000 129.10000610 413.80243027 -391.33295631 -42.74107742 2 -2 0 
290 6 1 -1.00000000 129.10000610 417.62142277 -390.75464249 -44.16283035 2 -2 0 
291 6 1 -1.00000000 129.10000610 416.76649714 -388.65172768 -47.37224579 2 -2 0 
292 6 2 1.00000000 128.19999695 418.12424231 -385.27623367 -48.46134567 2 -2 0 
293 6 1 -1.00000000 129.10000610 416.75914931 -382.64182281 -51.19937134 2 -2 0 
294 6 2 1.00000000 128.19999695 418.08983159 -382.39148712 -54.78059769 2 -2 0 
295 6 2 1.00000000 128.19999695 415.20258901 -382.41535568 -57.34024811 2 -2 0 
296 6 2 1.00000000 128.19999695 415.81938732 -379.43386078 -59.36352921 2 -2 0 
297 6 1 -1.00000000 129.10000610 419.60378027 -378.09925079 -60.19093704 2 -2 0 
298 6 2 1.00000000 128.19999695 423.33478355 -379.18951035 -60.24082184 2 -2 0 
299 6 1 -1.00000000 129.10000610 424.57350349 -382.68155289 -58.80205917 2 -2 0 
300 6 2 1.00000000 128.19999695 425.33952618 -385.53207207 -56.26079559 2 -2 0 
301 7 2 1.00000000 128.19999695 -109.65908051 -22.86341476 -940.77090454 -1 0 -5 
302 7 1 -1.00000000 129.10000610 -111.03733826 -19.56272507 -941.94075012 -1 0 -5 
303 7 2 1.00000000 128.19999695 -111.83093262 -16.59898949 -939.84304810 -1 0 -5 
304 7 2 1.00000000 128.19999695 -113.29685211 -17.57507324 -936.35681152 -1 0 -5 
305 7 2 1.00000000 128.19999695 -114.32754517 -20.68295288 -934.29837036 -1 0 -5 
306 7 1 -1.00000000 129.10000610 -115.51192474 -23.59497261 -936.98027039 -1 0 -5 
307 7 2 1.00000000 128.19999695 -118.24011993 -26.03194046 -935.36018372 -1 0 -5 
308 7 1 -1.00000000 129.10000610 -119.04356384 -29.96708679 -935.50984192 -1 0 -5 
309 7 1 -1.00000000 129.10000610 -120.95413208 -33.15882492 -937.18152618 -1 0 -5 
310 7 1 -1.00000000 129.10000610 -121.03679657 -36.20462799 -938.84210205 -1 0 -5 
311 7 2 1.00000000 128.19999695 -119.80404663 -39.40782166 -937.26317596 -1 0 -5 
312 7 1 -1.00000000 129.10000610 -120.04677582 -43.08626175 -936.10619354 -1 0 -5 
313 7 1 -1.00000000 129.10000610 -117.67034912 -44.91433716 -938.66882324 -1 0 -5 
314 7 1 -1.00000000 129.10000610 -116.11145782 -48.18239212 -937.27442932 -1 0 -5 
315 7 2 1.00000000 128.19999695 -117.24594116 -51.44210052 -939.02896118 -1 0 -5 
316 7 2 1.00000000 128.19999695 -119.23817444 -50.09421921 -942.13352203 -1 0 -5 
317 7 1 -1.00000000 129.10000610 -122.71968842 -49.87319183 -943.63880920 -1 0 -5 
318 7 1 -1.00000000 129.10000610 -125.03895569 -49.09851074 -946.65178680 -1 0 -5 
319 7 2 1.00000000 128.19999695 -122.40065002 -47.60126495 -948.89944458 -1 0 -5 
320 7 1 -1.00000000 129.10000610 -121.87239838 -44.25912094 -950.43811035 -1 0 -5 
321 7 1 -1.00000000 129.10000610 -121.20552826 -43.79551315 -954.09403992 -1 0 -5 
322 7 1 -1.00000000 129.10000610 -121.63970947 -40.98757553 -957.03146362 -1 0 -5 
323 7 2 1.00000000 128.19999695 -124.16042328 -38.34885406 -956.32155609 -1 0 -5 
324 7 1 -1.00000000 129.10000610 -126.36860657 -36.05268860 -954.24320221 -1 0 -5 
325 7 1 -1.00000000 129.10000610 -126.27320099 -32.12493134 -952.97478485 -1 0 -5 
326 7 2 1.00000000 128.19999695 -123.17306519 -32.91130829 -951.10462952 -1 0 -5 
327 7 2 1.00000000 128.19999695 -120.01925659 -31.25785828 -949.60494995 -1 0 -5 
328 7 2 1.00000000 128.19999695 -116.49604034 -29.99802017 -950.86670685 -1 0 -5 
329 7 2 1.00000000 128.19999695 -113.32170105 -28.18056870 -950.55628204 -1 0 -5 
330 7 2 1.00000000 128.19999695 -109.81077576 -29.04373550 -948.82133484 -1 0 -5 
331 7 1 -1.00000000 129.10000610 -108.52173615 -29.63114929 -945.21045685 -1 0 -5 
332 7 1 -1.00000000 129.10000610 -106.37666321 -27.49122047 -943.51141357 -1 0 -5 
333 7 1 -1.00000000 129.10000610 -104.17448425 -27.67372704 -940.54064941 -1 0 -5 
334 7 2 1.00000000 128.19999695 -104.09901428 -28.73649788 -937.04270172 -1 0 -5 
335 7 2 1.00000000 128.19999695 -101.03794098 -28.38866043 -934.93317413 0 0 -5 
336 7 2 1.00000000 128.19999695 -99.77879333 -28.15229225 -931.40010071 0 0 -4 
337 7 1 -1.00000000 129.10000610 -96.12692261 -28.76755142 -931.61920166 0 0 -4 
338 7 2 1.00000000 128.19999695 -93.63080597 -31.49648857 -932.09894562 0 0 -4 
339 7 1 -1.00000000 129.10000610 -90.30133820 -31.20397758 -930.96550751 0 0 -4 
340 7 1 -1.00000000 129.10000610 -88.79199219 -31.17759323 -927.41714478 0 0 -4 
341 7 1 -1.00000000 129.10000610 -86.10194397 -33.29364395 -926.20660400 0 0 -4 
342 7 2 1.00000000 128.19999695 -84.94401550 -36.32983017 -928.61896515 0 0 -4 
343 7 1 -1.00000000 129.10000610 -88.22859955 -37.56063843 -930.15656281 0 0 -4 
344 7 2 1.00000000 128.19999695 -91.10742188 -38.37136078 -927.56461334 0 0 -4 
345 7 2 1.00000000 128.19999695 -91.52674103 -36.66205597 -924.12635803 0 0 -4 
346 7 2 1.00000000 128.19999695 -90.75085449 -36.30630875 -920.82324982 0 0 -4 
347 7 1 -1.00000000 129.10000610 -88.48323059 -33.62713623 -919.16800690 0 0 -4 
348 7 2 1.00000000 128.19999695 -85.75258636 -33.57537079 -916.18681335 0 0 -4 
349 7 1 -1.00000000 129.10000610 -82.18265533 -34.35074615 -915.44857025 0 0 -4 
350 7 2 1.00000000 128.19999695 -78.64445496 -34.41550446 -916.42237854 0 0 -4 
351 8 2 1.00000000 128.19999695 92.88979340 -85.79544830 611.68822193 0 0 3 
352 8 1 -1.00000000 129.10000610 91.07434845 -88.81707764 609.73801231 0 0 3 
353 8 2 1.00000000 128.19999695 93.07080841 -89.95969391 606.86278152 0 0 3 
354 8 2 1.00000000 128.19999695 95.58653259 -87.38502502 605.93966103 0 0 3 
355 8 2 1.00000000 128.19999695 98.28386688 -89.00933838 603.44779778 0 0 3 
356 8 1 -1.00000000 129.10000610 99.66743469 -92.41950226 601.92115021 0 0 3 
357 8 2 1.00000000 128.19999695 100.61659241 -96.06934357 601.16182327 0 0 3 
358 8 1 -1.00000000 129.10000610 99.35151672 -98.81852722 599.07372856 0 0 3 
359 8 1 -1.00000000 129.10000610 101.04644775 -100.52397156 595.87466621 0 0 3 
360 8 1 -1.00000000 129.10000610 104.25868988 -100.87206268 594.09621048 1 0 3 
361 8 2 1.00000000 128.19999695 106.82204437 -101.12773895 591.07265663 1 0 3 
362 8 1 -1.00000000 129.10000610 108.46788025 -97.67678070 591.84627533 1 0 3 
363 8 1 -1.00000000 129.10000610 112.07209778 -97.08457947 592.39345741 1 0 3 
364 8 1 -1.00000000 129.10000610 115.80645752 -97.34043121 592.55372810 1 0 3 
365 8 2 1.00000000 128.19999695 117.77413940 -97.53156281 589.49586487 1 0 3 
366 8 2 1.00000000 128.19999695 117.55091858 -94.42354584 586.94839478 1 0 3 
367 8 1 -1.00000000 129.10000610 113.90451813 -93.46696472 586.21867371 1 0 3 
368 8 1 -1.00000000 129.10000610 110.60604095 -94.48712158 584.43108368 1 0 3 
369 8 2 1.00000000 128.19999695 108.64675903 -91.55921936 583.15939331 1 0 3 
370 8 1 -1.00000000 129.10000610 105.69226074 -93.02819824 580.89447784 1 0 3 
371 8 1 -1.00000000 129.10000610 102.13924408 -92.56961823 579.59745026 0 0 3 
372 8 1 -1.00000000 129.10000610 99.06217957 -90.62268066 578.30655289 0 0 3 