ITEM: TIMESTEP
42500000 
ITEM: NUMBER OF ATOMS 
25000 
ITEM: BOX BOUNDS pp pp pp 
-103.678017 103.678017 
-103.678017 103.678017 
-103.678017 103.678017 
ITEM: ATOMS id mol type q mass xu yu zu ix iy iz 
1 1 2 1.00000000 128.19999695 429.27823067 -108.45616913 -306.83791351 2 -1 -1 
2 1 1 -1.00000000 129.10000610 430.72671127 -107.18462372 -303.58527374 2 -1 -1 
3 1 2 1.00000000 128.19999695 430.63347912 -107.37596893 -299.88602448 2 -1 -1 
4 1 2 1.00000000 128.19999695 432.41355133 -106.42819977 -296.13153076 2 -1 -1 
5 1 2 1.00000000 128.19999695 431.25453949 -108.07101440 -292.96488190 2 -1 -1 
6 1 1 -1.00000000 129.10000610 432.37166977 -105.80108643 -289.88732910 2 -1 -1 
7 1 2 1.00000000 128.19999695 435.65800095 -106.03973389 -287.81098175 2 -1 -1 
8 1 1 -1.00000000 129.10000610 439.34868431 -106.20298004 -289.09117126 2 -1 -1 
9 1 1 -1.00000000 129.10000610 442.27720070 -108.56531525 -290.17163086 2 -1 -1 
10 1 1 -1.00000000 129.10000610 444.49216461 -109.21781921 -287.49537659 2 -1 -1 
11 1 2 1.00000000 128.19999695 444.89150429 -112.31669617 -285.32788086 2 -1 -1 
12 1 1 -1.00000000 129.10000610 442.04636002 -114.58840942 -284.39574432 2 -1 -1 
13 1 1 -1.00000000 129.10000610 442.30047798 -117.24439240 -281.84552765 2 -1 -1 
14 1 1 -1.00000000 129.10000610 445.51652336 -116.50737000 -279.71828461 2 -1 -1 
15 1 2 1.00000000 128.19999695 449.43023300 -115.35925293 -279.27233887 2 -1 -1 
16 1 2 1.00000000 128.19999695 450.90439224 -116.27011108 -276.04347229 2 -1 -1 
17 1 1 -1.00000000 129.10000610 454.79082108 -115.20921326 -275.07957458 2 -1 -1 
18 1 1 -1.00000000 129.10000610 455.89412689 -111.61844635 -275.65129089 2 -1 -1 
19 1 2 1.00000000 128.19999695 456.44333649 -108.25666046 -273.68730164 2 -1 -1 
20 1 1 -1.00000000 129.10000610 459.79587555 -106.82235718 -274.71800232 2 -1 -1 
21 1 1 -1.00000000 129.10000610 461.50972748 -105.22310638 -277.66476440 2 -1 -1 
22 1 1 -1.00000000 129.10000610 465.32577133 -105.75690460 -277.64371490 2 -1 -1 
23 1 2 1.00000000 128.19999695 468.95962906 -106.08510590 -278.61319733 2 -1 -1 
24 1 1 -1.00000000 129.10000610 470.55573654 -108.79480743 -276.47158813 2 -1 -1 
25 1 1 -1.00000000 129.10000610 470.74805832 -112.04093933 -274.93480682 2 -1 -1 
26 1 2 1.00000000 128.19999695 474.05240250 -112.83006287 -273.01147461 2 -1 -1 
27 1 2 1.00000000 128.19999695 477.68151855 -113.56719971 -273.58518219 2 -1 -1 
28 1 2 1.00000000 128.19999695 481.57799530 -114.47277069 -274.43195343 2 -1 -1 
29 1 2 1.00000000 128.19999695 481.28052521 -116.78365326 -277.62718201 2 -1 -1 
30 1 2 1.00000000 128.19999695 484.86132050 -115.96374512 -279.04877472 2 -1 -1 
31 1 1 -1.00000000 129.10000610 486.59698486 -116.32730865 -282.30326843 2 -1 -1 
32 1 1 -1.00000000 129.10000610 489.15328217 -118.78935242 -284.07020569 2 -1 -1 
33 1 1 -1.00000000 129.10000610 490.22549438 -121.91754913 -281.89931488 2 -1 -1 
34 1 2 1.00000000 128.19999695 491.73162842 -125.31221771 -280.87445831 2 -1 -1 
35 1 2 1.00000000 128.19999695 489.64184570 -128.36006165 -281.88739014 2 -1 -1 
36 1 2 1.00000000 128.19999695 489.09249878 -132.06811523 -281.15698242 2 -1 -1 
37 1 1 -1.00000000 129.10000610 492.75888824 -133.56375122 -281.00261688 2 -1 -1 
38 1 2 1.00000000 128.19999695 495.61166382 -135.74279785 -279.35946655 2 -1 -1 
39 1 1 -1.00000000 129.10000610 495.97689056 -137.36054993 -275.80504608 2 -1 -1 
40 1 1 -1.00000000 129.10000610 495.20211029 -134.21585083 -273.29872894 2 -1 -1 
41 1 1 -1.00000000 129.10000610 497.05226135 -132.97574615 -270.44340134 2 -1 -1 
42 1 2 1.00000000 128.19999695 500.27897644 -134.37115479 -270.14552689 2 -1 -1 
43 1 1 -1.00000000 129.10000610 503.50029755 -133.54354858 -269.82462311 2 -1 -1 
44 1 2 1.00000000 128.19999695 505.03230286 -130.79657745 -267.71325302 2 -1 -1 
45 1 2 1.00000000 128.19999695 505.85825348 -127.28282166 -266.24515915 2 -1 -1 
46 1 2 1.00000000 128.19999695 507.82012177 -124.71819305 -263.87015915 2 -1 -1 
47 1 1 -1.00000000 129.10000610 509.92384338 -123.96927643 -260.95603180 2 -1 -1 
48 1 2 1.00000000 128.19999695 513.72111511 -124.02725983 -261.40490341 2 -1 -1 
49 1 1 -1.00000000 129.10000610 514.42769623 -122.03003693 -264.54863358 2 -1 -1 
50 1 2 1.00000000 128.19999695 517.21806335 -122.95986176 -267.50842285 2 -1 -1 
51 2 2 1.00000000 128.19999695 471.43998337 391.15715599 -352.62205124 2 2 -2 
52 2 1 -1.00000000 129.10000610 470.10948944 389.53459549 -355.90848541 2 2 -2 
53 2 2 1.00000000 128.19999695 472.44945908 387.04129410 -357.63054276 2 2 -2 
54 2 2 1.00000000 128.19999695 473.62421036 385.62327385 -361.02508926 2 2 -2 
55 2 2 1.00000000 128.19999695 473.06537247 383.40798759 -364.30178452 2 2 -2 
56 2 1 -1.00000000 129.10000610 473.75782394 385.75606728 -367.43235397 2 2 -2 
57 2 2 1.00000000 128.19999695 473.81801987 384.06244850 -371.08264923 2 2 -2 
58 2 1 -1.00000000 129.10000610 472.99183655 383.04952240 -374.56324387 2 2 -2 
59 2 1 -1.00000000 129.10000610 471.60772324 384.70617104 -377.85788727 2 2 -2 
60 2 1 -1.00000000 129.10000610 469.18917847 381.72104263 -378.82521820 2 2 -2 
61 2 2 1.00000000 128.19999695 468.41248703 381.42542267 -382.71639442 2 2 -2 
62 2 1 -1.00000000 129.10000610 466.08015823 379.08471680 -384.59577751 2 2 -2 
63 2 1 -1.00000000 129.10000610 464.80400848 376.22820282 -381.83616638 2 2 -2 
64 2 1 -1.00000000 129.10000610 463.92350006 376.71586609 -378.08985138 2 2 -2 
65 2 2 1.00000000 128.19999695 464.20075226 378.54252625 -374.83982086 2 2 -2 
66 2 2 1.00000000 128.19999695 464.88008881 378.90888214 -371.24711227 2 2 -2 
67 2 1 -1.00000000 129.10000610 461.95859146 379.49776459 -368.96293640 2 2 -2 
68 2 1 -1.00000000 129.10000610 457.98712158 378.86994171 -369.07426071 2 2 -2 
69 2 2 1.00000000 128.19999695 456.75005722 375.47927856 -368.23819351 2 2 -2 
70 2 1 -1.00000000 129.10000610 456.53937912 371.95318604 -369.67819977 2 2 -2 
71 2 1 -1.00000000 129.10000610 456.54469299 368.27040100 -370.19422150 2 2 -2 
72 2 1 -1.00000000 129.10000610 452.71551895 367.14834595 -369.53518295 2 2 -2 
73 2 2 1.00000000 128.19999695 453.22195435 363.49013901 -368.66255188 2 2 -2 
74 2 1 -1.00000000 129.10000610 454.78123856 360.05424118 -370.01543427 2 2 -2 
75 2 1 -1.00000000 129.10000610 455.38200760 360.76103973 -373.43285370 2 2 -2 
76 2 2 1.00000000 128.19999695 458.88891983 358.66339874 -374.17291260 2 2 -2 
77 2 2 1.00000000 128.19999695 461.10392761 360.86471939 -372.19242096 2 2 -2 
78 2 2 1.00000000 128.19999695 462.25105667 363.18678665 -369.74993134 2 2 -2 
79 2 2 1.00000000 128.19999695 462.96706390 366.86001205 -368.71458435 2 2 -2 
80 2 2 1.00000000 128.19999695 462.57831192 370.20951843 -366.42892838 2 2 -2 
81 2 1 -1.00000000 129.10000610 460.47256851 372.68775177 -364.26918411 2 2 -2 
82 2 1 -1.00000000 129.10000610 462.42655945 376.04377747 -363.62693787 2 2 -2 
83 2 1 -1.00000000 129.10000610 462.86692047 377.92562866 -360.52397919 2 2 -2 
84 2 2 1.00000000 128.19999695 460.82000351 379.00352859 -357.66329575 2 2 -2 
85 2 2 1.00000000 128.19999695 457.17273331 380.50144577 -358.91588593 2 2 -2 
86 2 2 1.00000000 128.19999695 456.48590088 378.87308121 -362.29961777 2 2 -2 
87 2 1 -1.00000000 129.10000610 452.63077545 377.17991257 -362.63768005 2 2 -2 
88 2 2 1.00000000 128.19999695 450.23149109 374.48356628 -361.40202332 2 2 -2 
89 2 1 -1.00000000 129.10000610 449.46433258 371.06823349 -359.87065506 2 2 -2 
90 2 1 -1.00000000 129.10000610 445.93800545 369.48499298 -359.88548279 2 2 -2 
91 2 1 -1.00000000 129.10000610 445.78340912 367.08060074 -357.01361465 2 2 -2 
92 2 2 1.00000000 128.19999695 444.98736954 369.12352753 -353.91060638 2 2 -2 
93 2 1 -1.00000000 129.10000610 441.79933357 370.68877029 -352.20373535 2 2 -2 
94 2 2 1.00000000 128.19999695 439.35918808 373.38607025 -351.14741516 2 2 -2 
95 2 2 1.00000000 128.19999695 436.42553329 373.51936722 -353.52283478 2 2 -2 
96 2 2 1.00000000 128.19999695 434.09662819 376.61993790 -354.88737488 2 2 -2 
97 2 1 -1.00000000 129.10000610 430.65871525 376.49806213 -356.23312378 2 2 -2 
98 2 2 1.00000000 128.19999695 427.55254650 375.89629364 -354.06413651 2 2 -2 
99 2 1 -1.00000000 129.10000610 425.39853668 376.10610580 -351.04092407 2 2 -2 
100 2 2 1.00000000 128.19999695 423.16367149 377.73645782 -347.96127319 2 2 -2 
101 3 2 1.00000000 128.19999695 332.22135925 -95.56664276 101.20182800 2 0 0 
102 3 1 -1.00000000 129.10000610 333.65229797 -96.87223053 97.85881042 2 0 0 
103 3 2 1.00000000 128.19999695 332.15899658 -97.72093964 94.57500458 2 0 0 
104 3 2 1.00000000 128.19999695 328.82305145 -99.43741608 93.94897461 2 0 0 
105 3 2 1.00000000 128.19999695 328.01028442 -99.76376343 90.16230011 2 0 0 
106 3 1 -1.00000000 129.10000610 329.57307434 -97.48235321 87.47750854 2 0 0 
107 3 2 1.00000000 128.19999695 332.69393158 -95.47987366 86.41510010 2 0 0 
108 3 1 -1.00000000 129.10000610 336.04347229 -96.10465240 88.27097321 2 0 0 
109 3 1 -1.00000000 129.10000610 337.05242157 -99.79097748 88.60651398 2 0 0 
110 3 1 -1.00000000 129.10000610 334.35269928 -101.95574188 89.92177582 2 0 0 
111 3 2 1.00000000 128.19999695 334.98509216 -105.29843140 91.62446594 2 -1 0 
112 3 1 -1.00000000 129.10000610 335.97673798 -104.99344635 95.30079651 2 -1 0 
113 3 1 -1.00000000 129.10000610 339.30456543 -103.24369812 96.16894531 2 0 0 
114 3 1 -1.00000000 129.10000610 341.96427155 -105.95611572 95.29301453 2 -1 0 
115 3 2 1.00000000 128.19999695 342.99372101 -109.12810516 95.21469116 2 -1 0 
116 3 2 1.00000000 128.19999695 342.12492371 -112.64062500 95.35166931 2 -1 0 
117 3 1 -1.00000000 129.10000610 341.49194336 -116.08289337 94.60591888 2 -1 0 
118 3 1 -1.00000000 129.10000610 340.60092163 -118.94535065 92.43059540 2 -1 0 
119 3 2 1.00000000 128.19999695 336.41947174 -119.31899261 92.63719177 2 -1 0 
120 3 1 -1.00000000 129.10000610 335.02030945 -117.66179657 89.92108154 2 -1 0 
121 3 1 -1.00000000 129.10000610 334.53459930 -117.55052948 86.34172821 2 -1 0 
122 3 1 -1.00000000 129.10000610 335.71498108 -114.86766052 84.17225647 2 -1 0 
123 3 2 1.00000000 128.19999695 335.27729034 -111.17298126 83.53710175 2 -1 0 
124 3 1 -1.00000000 129.10000610 334.19736481 -107.76343536 81.82478333 2 -1 0 
125 3 1 -1.00000000 129.10000610 332.34648895 -107.42288971 78.67433167 2 -1 0 
126 3 2 1.00000000 128.19999695 332.63913727 -109.25927734 75.62081909 2 -1 0 
127 3 2 1.00000000 128.19999695 332.70407867 -108.50705719 71.93284607 2 -1 0 
128 3 2 1.00000000 128.19999695 331.87056732 -105.05268097 70.19538116 2 -1 0 
129 3 2 1.00000000 128.19999695 330.27334595 -102.23733521 68.11415863 2 0 0 
130 3 2 1.00000000 128.19999695 329.17725372 -99.21900177 66.46733093 2 0 0 
131 3 1 -1.00000000 129.10000610 329.58876801 -95.77104187 68.29064178 2 0 0 
132 3 1 -1.00000000 129.10000610 328.87470245 -95.86905670 72.01684570 2 0 0 
133 3 1 -1.00000000 129.10000610 325.43038940 -97.39952850 72.13832092 2 0 0 
134 3 2 1.00000000 128.19999695 322.23331451 -99.03888702 72.77659607 2 0 0 
135 3 2 1.00000000 128.19999695 319.55761719 -99.98519135 70.19398499 2 0 0 
136 3 2 1.00000000 128.19999695 318.37067413 -97.58023834 67.49340820 2 0 0 
137 3 1 -1.00000000 129.10000610 320.13358307 -98.05132294 64.10510254 2 0 0 
138 3 2 1.00000000 128.19999695 321.74262238 -96.17774200 61.18290710 2 0 0 
139 3 1 -1.00000000 129.10000610 324.71237946 -97.17696381 58.95002365 2 0 0 
140 3 1 -1.00000000 129.10000610 328.42423248 -96.11260986 58.40464401 2 0 0 
141 3 1 -1.00000000 129.10000610 331.31291199 -96.55847931 60.69800568 2 0 0 
142 3 2 1.00000000 128.19999695 332.99762726 -93.60428619 62.60519028 2 0 0 
143 3 1 -1.00000000 129.10000610 331.60160828 -89.70828247 62.80062866 2 0 0 
144 3 2 1.00000000 128.19999695 327.90167236 -89.73739624 61.83909607 2 0 0 
145 3 2 1.00000000 128.19999695 327.43688965 -88.14117432 58.44696045 2 0 0 
146 3 2 1.00000000 128.19999695 325.85009003 -85.32549286 56.44412994 2 0 0 
147 3 1 -1.00000000 129.10000610 324.58625793 -81.82050323 55.36906433 2 0 0 
148 3 2 1.00000000 128.19999695 323.31700897 -78.87417603 57.30574036 2 0 0 
149 3 1 -1.00000000 129.10000610 321.09687805 -78.62251282 60.42205811 2 0 0 
150 3 2 1.00000000 128.19999695 323.00012970 -78.99811554 64.23640442 2 0 0 
151 4 2 1.00000000 128.19999695 -325.01754761 392.51677322 57.31010818 -2 2 0 
152 4 1 -1.00000000 129.10000610 -324.54992676 392.71440887 53.51407242 -2 2 0 
153 4 2 1.00000000 128.19999695 -321.63679504 393.24285698 50.94578934 -2 2 0 
154 4 2 1.00000000 128.19999695 -321.28525543 396.58097267 49.51890182 -2 2 0 
155 4 2 1.00000000 128.19999695 -323.39994049 400.04992580 50.71781921 -2 2 0 
156 4 1 -1.00000000 129.10000610 -326.87058258 401.89892483 51.30142593 -2 2 0 
157 4 2 1.00000000 128.19999695 -330.36486816 402.09668446 49.95847702 -2 2 0 
158 4 1 -1.00000000 129.10000610 -331.43415070 398.70475960 48.71298981 -2 2 0 
159 4 1 -1.00000000 129.10000610 -329.65872955 395.64560127 47.46306992 -2 2 0 
160 4 1 -1.00000000 129.10000610 -331.64704132 392.11322403 46.91933441 -2 2 0 
161 4 2 1.00000000 128.19999695 -331.98291016 390.19722176 50.18107986 -2 2 0 
162 4 1 -1.00000000 129.10000610 -331.86011505 388.37204933 53.34840012 -2 2 0 
163 4 1 -1.00000000 129.10000610 -332.06487274 386.85993958 56.58156204 -2 2 0 
164 4 1 -1.00000000 129.10000610 -334.69802856 386.12439919 59.43612671 -2 2 0 
165 4 2 1.00000000 128.19999695 -336.67407227 383.05361557 59.50198746 -2 2 0 
166 4 2 1.00000000 128.19999695 -338.52707672 380.38810349 58.22396469 -2 2 0 
167 4 1 -1.00000000 129.10000610 -340.62069702 376.85146332 57.42304230 -2 2 0 
168 4 1 -1.00000000 129.10000610 -344.19020844 377.10202789 58.13254929 -2 2 0 
169 4 2 1.00000000 128.19999695 -346.80674744 379.17480087 59.01984406 -2 2 0 
170 4 1 -1.00000000 129.10000610 -346.24220276 382.47336197 57.71208954 -2 2 0 
171 4 1 -1.00000000 129.10000610 -346.10324097 383.43457794 54.14939117 -2 2 0 
172 4 1 -1.00000000 129.10000610 -347.22119904 387.35888863 54.19638062 -2 2 0 
173 4 2 1.00000000 128.19999695 -349.03863525 390.67593575 53.96436691 -2 2 0 
174 4 1 -1.00000000 129.10000610 -351.04602051 392.32851028 51.05196381 -2 2 0 
175 4 1 -1.00000000 129.10000610 -354.57081223 392.73238373 49.63000870 -2 2 0 
176 4 2 1.00000000 128.19999695 -358.02667618 391.57090378 48.94726562 -2 2 0 
177 4 2 1.00000000 128.19999695 -360.68633270 389.06426239 48.39153671 -2 2 0 
178 4 2 1.00000000 128.19999695 -363.32197189 386.30180550 47.52965927 -2 2 0 
179 4 2 1.00000000 128.19999695 -366.78529739 386.11079597 46.59627533 -2 2 0 
180 4 2 1.00000000 128.19999695 -368.67149734 389.73906136 46.26420593 -2 2 0 
181 4 1 -1.00000000 129.10000610 -370.92026901 388.92176437 43.15839767 -2 2 0 
182 4 1 -1.00000000 129.10000610 -373.08343124 385.73729515 43.73420334 -2 2 0 
183 4 1 -1.00000000 129.10000610 -371.87723160 383.38322639 41.25274277 -2 2 0 
184 4 2 1.00000000 128.19999695 -371.13895416 383.71208763 37.74317932 -2 2 0 
185 4 2 1.00000000 128.19999695 -368.09062958 382.98776627 35.76566315 -2 2 0 
186 4 2 1.00000000 128.19999695 -367.11890030 384.50011635 32.35344315 -2 2 0 
187 4 1 -1.00000000 129.10000610 -368.87074661 387.71207047 32.14777374 -2 2 0 
188 4 2 1.00000000 128.19999695 -371.84130478 390.10448074 31.53928375 -2 2 0 
189 4 1 -1.00000000 129.10000610 -375.17531967 392.11725998 31.25084305 -2 2 0 
190 4 1 -1.00000000 129.10000610 -378.39725113 390.40188026 31.34163666 -2 2 0 
191 4 1 -1.00000000 129.10000610 -380.76383972 393.31358528 32.23836517 -2 2 0 
192 4 2 1.00000000 128.19999695 -383.59706116 391.68107986 34.36783218 -2 2 0 
193 4 1 -1.00000000 129.10000610 -383.34810257 388.70076752 36.89080811 -2 2 0 
194 4 2 1.00000000 128.19999695 -381.62376022 386.70901680 39.54090118 -2 2 0 
195 4 2 1.00000000 128.19999695 -378.04486847 384.73594666 40.18698502 -2 2 0 
196 4 2 1.00000000 128.19999695 -378.24224854 381.88194275 37.83857727 -2 2 0 
197 4 1 -1.00000000 129.10000610 -379.14096069 378.68589401 35.94726562 -2 2 0 
198 4 2 1.00000000 128.19999695 -382.62012100 376.92583847 35.12915421 -2 2 0 
199 4 1 -1.00000000 129.10000610 -381.63250732 373.28397369 34.45070267 -2 2 0 
200 4 2 1.00000000 128.19999695 -380.12783813 370.55547333 32.73294830 -2 2 0 
201 5 2 1.00000000 128.19999695 -344.42789459 -333.04423523 -306.30195618 -2 -2 -1 
202 5 1 -1.00000000 129.10000610 -347.40260315 -331.41047668 -304.41413879 -2 -2 -1 
203 5 2 1.00000000 128.19999695 -347.48848724 -330.22119141 -300.39866638 -2 -2 -1 
204 5 2 1.00000000 128.19999695 -348.42401886 -326.71389008 -301.35907745 -2 -2 -1 
205 5 2 1.00000000 128.19999695 -349.81731415 -323.17052460 -301.90874481 -2 -2 -1 
206 5 1 -1.00000000 129.10000610 -351.83868027 -321.40846252 -299.50704193 -2 -2 -1 
207 5 2 1.00000000 128.19999695 -351.54858398 -319.37311554 -296.04637146 -2 -2 -1 
208 5 1 -1.00000000 129.10000610 -348.93158722 -319.26934052 -293.36233521 -2 -2 -1 
209 5 1 -1.00000000 129.10000610 -345.34644318 -318.35704041 -294.00501251 -2 -2 -1 
210 5 1 -1.00000000 129.10000610 -344.87829590 -314.32285309 -294.56439209 -2 -2 -1 
211 5 2 1.00000000 128.19999695 -343.33634949 -312.48410034 -298.26081848 -2 -2 -1 
212 5 1 -1.00000000 129.10000610 -342.77999115 -314.22640991 -301.55781555 -2 -2 -1 
213 5 1 -1.00000000 129.10000610 -342.12176514 -314.14200592 -305.31297302 -2 -2 -1 
214 5 1 -1.00000000 129.10000610 -343.08802032 -316.10893250 -308.21723938 -2 -2 -1 
215 5 2 1.00000000 128.19999695 -341.05542755 -316.56052399 -311.37703705 -2 -2 -2 
216 5 2 1.00000000 128.19999695 -341.60688782 -319.46806335 -314.05044556 -2 -2 -2 
217 5 1 -1.00000000 129.10000610 -343.43218231 -322.37978363 -315.52930450 -2 -2 -2 
218 5 1 -1.00000000 129.10000610 -341.86915588 -325.70136261 -314.33180237 -2 -2 -2 
219 5 2 1.00000000 128.19999695 -343.98736572 -327.21688080 -311.44409180 -2 -2 -2 
220 5 1 -1.00000000 129.10000610 -346.69853210 -326.35008240 -308.78058624 -2 -2 -1 
221 5 1 -1.00000000 129.10000610 -349.60913849 -324.08188629 -308.80759430 -2 -2 -1 
222 5 1 -1.00000000 129.10000610 -350.76493835 -324.32727814 -312.50009918 -2 -2 -2 
223 5 2 1.00000000 128.19999695 -350.96903229 -326.95766449 -315.17311096 -2 -2 -2 
224 5 1 -1.00000000 129.10000610 -353.48199463 -329.07158661 -317.10515594 -2 -2 -2 
225 5 1 -1.00000000 129.10000610 -356.91029739 -326.99698639 -317.64541626 -2 -2 -2 
226 5 2 1.00000000 128.19999695 -359.92342377 -327.64350128 -315.57801819 -2 -2 -2 
227 5 2 1.00000000 128.19999695 -363.30239105 -326.25839996 -316.36106873 -2 -2 -2 
228 5 2 1.00000000 128.19999695 -367.16225815 -326.08593750 -316.33875275 -2 -2 -2 
229 5 2 1.00000000 128.19999695 -370.92075729 -326.85579681 -316.02619934 -2 -2 -2 
230 5 2 1.00000000 128.19999695 -372.03500748 -329.02864075 -313.32553101 -2 -2 -2 
231 5 1 -1.00000000 129.10000610 -369.39368057 -331.61002350 -311.89739227 -2 -2 -2 
232 5 1 -1.00000000 129.10000610 -366.93128586 -328.94564819 -310.27576447 -2 -2 -1 
233 5 1 -1.00000000 129.10000610 -365.03145218 -325.81317139 -309.47129822 -2 -2 -1 
234 5 2 1.00000000 128.19999695 -364.16061783 -325.62764740 -305.56537628 -2 -2 -1 
235 5 2 1.00000000 128.19999695 -361.16297150 -326.00052643 -303.72310638 -2 -2 -1 
236 5 2 1.00000000 128.19999695 -360.13206863 -328.73632812 -301.42727661 -2 -2 -1 
237 5 1 -1.00000000 129.10000610 -360.15464020 -332.43178558 -299.67006683 -2 -2 -1 
238 5 2 1.00000000 128.19999695 -358.76678467 -335.66821289 -298.76538849 -2 -2 -1 
239 5 1 -1.00000000 129.10000610 -355.71412277 -336.61269379 -296.42308807 -2 -2 -1 
240 5 1 -1.00000000 129.10000610 -352.50886917 -336.79910278 -294.44435883 -2 -2 -1 
241 5 1 -1.00000000 129.10000610 -349.05593872 -337.40122986 -293.38717651 -2 -2 -1 
242 5 2 1.00000000 128.19999695 -348.74472046 -336.62821960 -289.41920471 -2 -2 -1 
243 5 1 -1.00000000 129.10000610 -344.99059296 -337.96817780 -289.60260773 -2 -2 -1 
244 5 2 1.00000000 128.19999695 -341.98047638 -338.58574677 -291.76651764 -2 -2 -1 
245 5 2 1.00000000 128.19999695 -341.20568085 -340.53060913 -294.65248871 -2 -2 -1 
246 5 2 1.00000000 128.19999695 -337.60254669 -342.51117706 -294.38727570 -2 -2 -1 
247 5 1 -1.00000000 129.10000610 -336.95296478 -346.16099548 -295.71306610 -2 -2 -1 
248 5 2 1.00000000 128.19999695 -339.11772919 -349.66499329 -296.75125122 -2 -2 -1 
249 5 1 -1.00000000 129.10000610 -341.48122406 -349.54573822 -299.92985535 -2 -2 -1 
250 5 2 1.00000000 128.19999695 -342.81864166 -353.16864777 -299.54283142 -2 -2 -1 
251 6 2 1.00000000 128.19999695 423.76006508 -404.52543736 -98.03370667 2 -2 0 
252 6 1 -1.00000000 129.10000610 423.71849346 -408.19581079 -96.93294525 2 -2 0 
253 6 2 1.00000000 128.19999695 424.20228386 -411.27875543 -99.41289520 2 -2 0 
254 6 2 1.00000000 128.19999695 426.80151844 -411.03694248 -101.98933411 2 -2 0 
255 6 2 1.00000000 128.19999695 430.18496513 -410.34586954 -100.31208801 2 -2 0 
256 6 1 -1.00000000 129.10000610 433.00125694 -408.89981651 -102.26868439 2 -2 0 
257 6 2 1.00000000 128.19999695 436.38342667 -409.68607187 -100.57118225 2 -2 0 
258 6 1 -1.00000000 129.10000610 439.61485291 -408.03826666 -99.82157135 2 -2 0 
259 6 1 -1.00000000 129.10000610 440.27027512 -408.95863056 -96.05812073 2 -2 0 
260 6 1 -1.00000000 129.10000610 437.51938438 -410.93225026 -94.17196655 2 -2 0 
261 6 2 1.00000000 128.19999695 438.55425644 -414.66643824 -94.25704956 2 -2 0 
262 6 1 -1.00000000 129.10000610 438.93933868 -416.60065126 -97.35214233 2 -2 0 
263 6 1 -1.00000000 129.10000610 440.20349312 -419.40275002 -98.98074341 2 -2 0 
264 6 1 -1.00000000 129.10000610 439.48706055 -423.22156143 -98.79967499 2 -2 0 
265 6 2 1.00000000 128.19999695 437.00459862 -425.51733112 -96.98540497 2 -2 0 
266 6 2 1.00000000 128.19999695 434.52678299 -422.77458477 -95.22585297 2 -2 0 
267 6 1 -1.00000000 129.10000610 432.49690437 -423.76334000 -92.12140656 2 -2 0 
268 6 1 -1.00000000 129.10000610 429.11120510 -422.62849998 -90.73859406 2 -2 0 
269 6 2 1.00000000 128.19999695 427.69103432 -419.45159006 -89.18260956 2 -2 0 
270 6 1 -1.00000000 129.10000610 424.72630787 -416.88190937 -88.21880341 2 -2 0 
271 6 1 -1.00000000 129.10000610 422.20727396 -414.54043041 -89.59014893 2 -2 0 
272 6 1 -1.00000000 129.10000610 419.30392408 -413.53675497 -91.67182922 2 -2 0 
273 6 2 1.00000000 128.19999695 416.55305541 -410.58566904 -92.03429413 2 -2 0 
274 6 1 -1.00000000 129.10000610 414.15079588 -407.99417114 -93.49603271 2 -2 0 
275 6 1 -1.00000000 129.10000610 415.79384720 -404.44123268 -94.54600525 2 -2 0 
276 6 2 1.00000000 128.19999695 413.30757403 -402.87027454 -97.28074646 2 -2 0 
277 6 2 1.00000000 128.19999695 410.01038408 -405.35971832 -97.79132080 2 -2 0 
278 6 2 1.00000000 128.19999695 406.38310909 -404.15225887 -98.81576538 2 -2 0 
279 6 2 1.00000000 128.19999695 405.26828289 -403.48843193 -102.54802704 2 -2 0 
280 6 2 1.00000000 128.19999695 406.08309078 -404.72019100 -106.08305359 2 -2 -1 
281 6 1 -1.00000000 129.10000610 404.55826378 -407.29239559 -108.80144501 2 -2 -1 
282 6 1 -1.00000000 129.10000610 402.83200645 -409.65147114 -106.44111633 2 -2 -1 
283 6 1 -1.00000000 129.10000610 399.18806458 -408.88403463 -107.12060547 2 -2 -1 
284 6 2 1.00000000 128.19999695 397.34246826 -407.01275444 -109.59607697 2 -2 -1 
285 6 2 1.00000000 128.19999695 399.47949982 -405.50347424 -112.34925079 2 -2 -1 
286 6 2 1.00000000 128.19999695 401.07223606 -402.36851215 -113.80050659 2 -2 -1 
287 6 1 -1.00000000 129.10000610 401.77807713 -399.44007301 -116.18134308 2 -2 -1 
288 6 2 1.00000000 128.19999695 404.35148239 -396.60241699 -115.57524872 2 -2 -1 
289 6 1 -1.00000000 129.10000610 407.84592009 -396.70130157 -114.07384491 2 -2 -1 
290 6 1 -1.00000000 129.10000610 410.35697937 -394.91053772 -116.16069794 2 -2 -1 
291 6 1 -1.00000000 129.10000610 411.70812964 -391.82637596 -117.89725494 2 -2 -1 
292 6 2 1.00000000 128.19999695 415.63436580 -391.80772781 -116.73416901 2 -2 -1 
293 6 1 -1.00000000 129.10000610 418.18681717 -392.49671745 -113.87104034 2 -2 -1 
294 6 2 1.00000000 128.19999695 418.37780309 -394.61331749 -110.71946716 2 -2 -1 
295 6 2 1.00000000 128.19999695 419.11869764 -398.24160957 -111.20622253 2 -2 -1 
296 6 2 1.00000000 128.19999695 421.78166819 -399.44579220 -113.45342255 2 -2 -1 
297 6 1 -1.00000000 129.10000610 422.22508574 -397.92439842 -116.96894836 2 -2 -1 
298 6 2 1.00000000 128.19999695 421.31607628 -400.07684994 -119.93657684 2 -2 -1 
299 6 1 -1.00000000 129.10000610 417.49965143 -400.29485607 -119.16350555 2 -2 -1 
300 6 2 1.00000000 128.19999695 414.52410893 -398.26963043 -119.71220398 2 -2 -1 
301 7 2 1.00000000 128.19999695 -64.25113678 -54.38904190 -868.40255737 0 0 -4 
302 7 1 -1.00000000 129.10000610 -67.72438812 -52.84429169 -868.91656876 0 0 -4 
303 7 2 1.00000000 128.19999695 -69.67259216 -55.29969406 -871.01884079 0 0 -4 
304 7 2 1.00000000 128.19999695 -71.57291412 -57.61806870 -868.85307312 0 0 -4 
305 7 2 1.00000000 128.19999695 -71.55508423 -59.49646759 -865.70557022 0 0 -4 
306 7 1 -1.00000000 129.10000610 -71.75152588 -60.27120209 -862.00637817 0 0 -4 
307 7 2 1.00000000 128.19999695 -71.11495972 -57.50749207 -859.18511391 0 0 -4 
308 7 1 -1.00000000 129.10000610 -70.68898010 -54.02828217 -861.12280464 0 0 -4 
309 7 1 -1.00000000 129.10000610 -68.60030365 -51.26124191 -861.45552063 0 0 -4 
310 7 1 -1.00000000 129.10000610 -65.95126343 -48.27851486 -860.89866447 0 0 -4 
311 7 2 1.00000000 128.19999695 -64.09181976 -45.41748810 -862.64406586 0 0 -4 
312 7 1 -1.00000000 129.10000610 -62.56672668 -42.27018738 -863.82559967 0 0 -4 
313 7 1 -1.00000000 129.10000610 -59.62141800 -42.32328033 -865.93984222 0 0 -4 
314 7 1 -1.00000000 129.10000610 -60.42799759 -40.23912430 -868.84011841 0 0 -4 
315 7 2 1.00000000 128.19999695 -59.11620331 -37.82745743 -871.35019684 0 0 -4 
316 7 2 1.00000000 128.19999695 -58.67200089 -34.21091080 -870.72973633 0 0 -4 
317 7 1 -1.00000000 129.10000610 -60.27047729 -30.64467621 -871.48148727 0 0 -4 
318 7 1 -1.00000000 129.10000610 -62.34773254 -27.59620476 -870.16805267 0 0 -4 
319 7 2 1.00000000 128.19999695 -65.33628082 -25.17799377 -869.48948288 0 0 -4 
320 7 1 -1.00000000 129.10000610 -69.01558685 -23.92813301 -868.91298676 0 0 -4 
321 7 1 -1.00000000 129.10000610 -68.39850616 -20.27407265 -868.86851120 0 0 -4 
322 7 1 -1.00000000 129.10000610 -70.58484650 -17.74581146 -870.33311462 0 0 -4 
323 7 2 1.00000000 128.19999695 -72.75657654 -18.50299072 -873.50551224 0 0 -4 
324 7 1 -1.00000000 129.10000610 -70.47190857 -19.42541885 -876.70807648 0 0 -4 
325 7 1 -1.00000000 129.10000610 -71.77674866 -20.34631157 -880.09878540 0 0 -4 
326 7 2 1.00000000 128.19999695 -70.04492188 -18.87734985 -883.03886414 0 0 -4 
327 7 2 1.00000000 128.19999695 -70.45733643 -15.32939911 -882.98781204 0 0 -4 
328 7 2 1.00000000 128.19999695 -71.85087585 -11.84445190 -882.63144684 0 0 -4 
329 7 2 1.00000000 128.19999695 -74.16572571 -10.13305378 -885.13107681 0 0 -4 
330 7 2 1.00000000 128.19999695 -76.46681213 -11.06071091 -887.93582916 0 0 -4 
331 7 1 -1.00000000 129.10000610 -79.74998474 -11.08159065 -885.88898849 0 0 -4 
332 7 1 -1.00000000 129.10000610 -82.33836365 -12.46407223 -887.67045212 0 0 -4 
333 7 1 -1.00000000 129.10000610 -84.87400055 -13.81731892 -890.11204529 0 0 -4 
334 7 2 1.00000000 128.19999695 -86.52870178 -11.03866291 -891.43618774 0 0 -4 
335 7 2 1.00000000 128.19999695 -84.18146515 -7.97007751 -891.95366287 0 0 -4 
336 7 2 1.00000000 128.19999695 -80.45044708 -7.19789267 -892.19264221 0 0 -4 
337 7 1 -1.00000000 129.10000610 -78.79502869 -10.23922443 -894.07285309 0 0 -4 
338 7 2 1.00000000 128.19999695 -76.46040344 -9.84289169 -897.21605682 0 0 -4 
339 7 1 -1.00000000 129.10000610 -78.42552185 -10.90039253 -900.21849823 0 0 -4 
340 7 1 -1.00000000 129.10000610 -80.68799591 -10.69511414 -903.49415588 0 0 -4 
341 7 1 -1.00000000 129.10000610 -84.39949799 -9.66712570 -904.27267456 0 0 -4 
342 7 2 1.00000000 128.19999695 -86.74185181 -6.87081528 -903.59530640 0 0 -4 
343 7 1 -1.00000000 129.10000610 -84.95941925 -4.03347254 -901.44557953 0 0 -4 
344 7 2 1.00000000 128.19999695 -83.19972229 -2.96757030 -898.00992584 0 0 -4 
345 7 2 1.00000000 128.19999695 -79.89126587 -1.32956088 -897.89921570 0 0 -4 
346 7 2 1.00000000 128.19999695 -77.27326202 0.64074332 -900.07717133 0 0 -4 
347 7 1 -1.00000000 129.10000610 -74.14085388 0.99150902 -901.69734192 0 0 -4 
348 7 2 1.00000000 128.19999695 -72.07867432 -2.22273827 -901.01862335 0 0 -4 
349 7 1 -1.00000000 129.10000610 -72.65918732 -4.69347525 -903.73250580 0 0 -4 
350 7 2 1.00000000 128.19999695 -73.33050537 -7.25547457 -906.45944214 0 0 -4 
351 8 2 1.00000000 128.19999695 -29.75360680 -61.10625839 656.76057816 0 0 3 
352 8 1 -1.00000000 129.10000610 -32.99810410 -61.31159210 658.32096863 0 0 3 
353 8 2 1.00000000 128.19999695 -33.70472717 -63.31275177 661.92037964 0 0 3 
354 8 2 1.00000000 128.19999695 -34.08884430 -63.29623795 665.90865707 0 0 3 
355 8 2 1.00000000 128.19999695 -36.13186646 -60.28062820 667.44633102 0 0 3 
356 8 1 -1.00000000 129.10000610 -39.18772125 -58.53863907 666.11477661 0 0 3 
357 8 2 1.00000000 128.19999695 -42.42613983 -60.67049026 667.49899292 0 0 3 
358 8 1 -1.00000000 129.10000610 -45.44990540 -58.33975601 667.57089615 0 0 3 
359 8 1 -1.00000000 129.10000610 -47.19522858 -55.47959900 665.84053421 0 0 3 
360 8 1 -1.00000000 129.10000610 -44.75438690 -53.09211731 664.50234985 0 0 3 
361 8 2 1.00000000 128.19999695 -45.11141586 -52.74475861 660.87318420 0 0 3 
362 8 1 -1.00000000 129.10000610 -45.12408829 -51.02510834 657.31459045 0 0 3 
363 8 1 -1.00000000 129.10000610 -44.19857025 -53.97963715 655.00090408 0 0 3 
364 8 1 -1.00000000 129.10000610 -41.67644882 -56.24110031 656.82030487 0 0 3 
365 8 2 1.00000000 128.19999695 -38.35906601 -55.54961777 654.17739868 0 0 3 
366 8 2 1.00000000 128.19999695 -36.47638321 -52.45246124 652.67072678 0 0 3 
367 8 1 -1.00000000 129.10000610 -35.66761017 -51.07156754 649.32056427 0 0 3 
368 8 1 -1.00000000 129.10000610 -34.68328857 -47.92139816 647.38298607 0 0 3 
369 8 2 1.00000000 128.19999695 -31.79062462 -48.63186264 645.07180023 0 0 3 