ITEM: TIMESTEP
43950000 
ITEM: NUMBER OF ATOMS 
25000 
ITEM: BOX BOUNDS pp pp pp 
-103.678017 103.678017 
-103.678017 103.678017 
-103.678017 103.678017 
ITEM: ATOMS id mol type q mass xu yu zu ix iy iz 
1 1 2 1.00000000 128.19999695 507.36900330 -197.32125378 -281.08589172 2 -1 -1 
2 1 1 -1.00000000 129.10000610 508.33195496 -200.88604975 -280.44551849 2 -1 -1 
3 1 2 1.00000000 128.19999695 505.12769318 -203.07462740 -280.52312469 2 -1 -1 
4 1 2 1.00000000 128.19999695 502.05608368 -204.00165844 -282.14435577 2 -1 -1 
5 1 2 1.00000000 128.19999695 498.61206055 -204.30804515 -283.10960388 2 -1 -1 
6 1 1 -1.00000000 129.10000610 495.74906158 -206.71091807 -284.39949799 2 -1 -1 
7 1 2 1.00000000 128.19999695 496.34722900 -209.40665030 -287.02976990 2 -1 -1 
8 1 1 -1.00000000 129.10000610 499.57341766 -211.10242987 -287.55863190 2 -1 -1 
9 1 1 -1.00000000 129.10000610 499.41556549 -213.42644501 -284.31324768 2 -1 -1 
10 1 1 -1.00000000 129.10000610 500.48502350 -216.58058262 -282.92952728 2 -1 -1 
11 1 2 1.00000000 128.19999695 502.82308197 -219.16445065 -283.81084442 2 -1 -1 
12 1 1 -1.00000000 129.10000610 505.28064728 -221.66380787 -282.84154510 2 -1 -1 
13 1 1 -1.00000000 129.10000610 509.00857544 -221.98958206 -284.10037994 2 -1 -1 
14 1 1 -1.00000000 129.10000610 510.40892792 -219.27244091 -285.78451538 2 -1 -1 
15 1 2 1.00000000 128.19999695 508.94056702 -216.35698986 -288.10885620 2 -1 -1 
16 1 2 1.00000000 128.19999695 510.09468842 -213.17784834 -290.15793610 2 -1 -1 
17 1 1 -1.00000000 129.10000610 510.62180328 -209.37957263 -290.10585785 2 -1 -1 
18 1 1 -1.00000000 129.10000610 509.29119873 -208.01251274 -287.30280304 2 -1 -1 
19 1 2 1.00000000 128.19999695 508.56986237 -208.59672213 -283.82055664 2 -1 -1 
20 1 1 -1.00000000 129.10000610 507.47599792 -208.72357118 -280.12570953 2 -1 -1 
21 1 1 -1.00000000 129.10000610 508.05771637 -212.08250761 -277.66205597 2 -1 -1 
22 1 1 -1.00000000 129.10000610 505.39105988 -212.47705364 -275.08952332 2 -1 -1 
23 1 2 1.00000000 128.19999695 502.86797333 -210.31965947 -273.10996246 2 -1 -1 
24 1 1 -1.00000000 129.10000610 504.34843445 -206.36745161 -272.93376160 2 -1 -1 
25 1 1 -1.00000000 129.10000610 506.32999420 -202.92885399 -273.14561462 2 -1 -1 
26 1 2 1.00000000 128.19999695 505.74092865 -199.48086500 -271.71347809 2 -1 -1 
27 1 2 1.00000000 128.19999695 502.16597748 -199.44924450 -270.95852661 2 -1 -1 
28 1 2 1.00000000 128.19999695 500.84609985 -196.31911659 -268.66913223 2 -1 -1 
29 1 2 1.00000000 128.19999695 499.11251831 -193.20196533 -270.27240753 2 -1 -1 
30 1 2 1.00000000 128.19999695 500.17008972 -191.38678265 -273.92812347 2 -1 -1 
31 1 1 -1.00000000 129.10000610 501.84452057 -188.39193916 -273.32212830 2 -1 -1 
32 1 1 -1.00000000 129.10000610 505.38743591 -187.87835503 -271.24014282 2 -1 -1 
33 1 1 -1.00000000 129.10000610 505.81332397 -190.54648781 -268.73357010 2 -1 -1 
34 1 2 1.00000000 128.19999695 505.35483551 -188.91111183 -265.28757095 2 -1 -1 
35 1 2 1.00000000 128.19999695 508.09453583 -190.08821678 -263.04493332 2 -1 -1 
36 1 2 1.00000000 128.19999695 509.19556427 -188.54390335 -259.56948853 2 -1 -1 
37 1 1 -1.00000000 129.10000610 507.88381958 -185.20145988 -258.27628326 2 -1 -1 
38 1 2 1.00000000 128.19999695 505.47283936 -184.78156281 -255.38734055 2 -1 -1 
39 1 1 -1.00000000 129.10000610 504.99362946 -183.71718597 -251.67940140 2 -1 -1 
40 1 1 -1.00000000 129.10000610 505.62412262 -184.49429131 -248.31016159 2 -1 -1 
41 1 1 -1.00000000 129.10000610 504.79951477 -182.48989296 -245.09426498 2 -1 -1 
42 1 2 1.00000000 128.19999695 504.10621643 -178.74690437 -246.08302689 2 -1 -1 
43 1 1 -1.00000000 129.10000610 506.92249298 -176.42816544 -245.50238800 2 -1 -1 
44 1 2 1.00000000 128.19999695 509.53925323 -177.63167191 -247.85789108 2 -1 -1 
45 1 2 1.00000000 128.19999695 511.86927795 -177.87510300 -250.51536942 2 -1 -1 
46 1 2 1.00000000 128.19999695 510.61716461 -179.84337234 -253.52774429 2 -1 -1 
47 1 1 -1.00000000 129.10000610 509.50670624 -178.67246246 -256.88106918 2 -1 -1 
48 1 2 1.00000000 128.19999695 507.49893188 -175.25738525 -258.28693390 2 -1 -1 
49 1 1 -1.00000000 129.10000610 506.17094421 -175.36507225 -261.60489655 2 -1 -1 
50 1 2 1.00000000 128.19999695 506.35116577 -176.48766136 -265.29283524 2 -1 -1 
51 2 2 1.00000000 128.19999695 539.08617401 300.33918762 -325.89533997 3 1 -2 
52 2 1 -1.00000000 129.10000610 537.26672363 300.95934296 -329.22414398 3 1 -2 
53 2 2 1.00000000 128.19999695 534.16472626 299.08405304 -331.12905884 3 1 -2 
54 2 2 1.00000000 128.19999695 533.54904175 298.58322144 -334.80194092 3 1 -2 
55 2 2 1.00000000 128.19999695 532.77964783 300.46925354 -337.53157806 3 1 -2 
56 2 1 -1.00000000 129.10000610 530.08363342 303.07498169 -337.65373993 3 1 -2 
57 2 2 1.00000000 128.19999695 530.58883667 305.98587799 -335.13948822 3 1 -2 
58 2 1 -1.00000000 129.10000610 534.07725525 307.02023315 -336.85713959 3 1 -2 
59 2 1 -1.00000000 129.10000610 536.60963440 305.55562592 -339.32591248 3 1 -2 
60 2 1 -1.00000000 129.10000610 539.30461884 303.38370514 -337.81472015 3 1 -2 
61 2 2 1.00000000 128.19999695 540.85977173 299.84822083 -338.41200256 3 1 -2 
62 2 1 -1.00000000 129.10000610 543.39154816 296.87453461 -338.27292633 3 1 -2 
63 2 1 -1.00000000 129.10000610 546.68075562 297.15711975 -336.71366119 3 1 -2 
64 2 1 -1.00000000 129.10000610 549.34418488 294.63337708 -335.94855499 3 1 -2 
65 2 2 1.00000000 128.19999695 548.76071167 291.97917175 -333.12114716 3 1 -2 
66 2 2 1.00000000 128.19999695 546.90457153 292.52471924 -329.99559021 3 1 -2 
67 2 1 -1.00000000 129.10000610 544.54166412 290.96575928 -327.14328003 3 1 -2 
68 2 1 -1.00000000 129.10000610 541.68652344 289.07675934 -327.20436096 3 1 -2 
69 2 2 1.00000000 128.19999695 541.28198242 287.54926300 -330.87175751 3 1 -2 
70 2 1 -1.00000000 129.10000610 543.20186615 288.79708099 -333.94666290 3 1 -2 
71 2 1 -1.00000000 129.10000610 542.04354858 290.23951721 -337.18222809 3 1 -2 
72 2 1 -1.00000000 129.10000610 540.21614838 287.65399170 -338.85379028 3 1 -2 
73 2 2 1.00000000 128.19999695 536.41995239 287.46572876 -338.83401489 3 1 -2 
74 2 1 -1.00000000 129.10000610 534.59266663 283.89768982 -338.97227478 3 1 -2 
75 2 1 -1.00000000 129.10000610 534.41963196 280.86579895 -340.94078827 3 1 -2 
76 2 2 1.00000000 128.19999695 534.76874542 281.41017914 -344.59440613 3 1 -2 
77 2 2 1.00000000 128.19999695 534.49020386 283.92362976 -347.51107788 3 1 -2 
78 2 2 1.00000000 128.19999695 533.47195435 287.49333191 -346.21916199 3 1 -2 
79 2 2 1.00000000 128.19999695 530.64736176 288.97270966 -344.25465393 3 1 -2 
80 2 2 1.00000000 128.19999695 530.69541168 291.73021698 -341.62696838 3 1 -2 
81 2 1 -1.00000000 129.10000610 528.28561401 292.44467926 -338.50592804 3 1 -2 
82 2 1 -1.00000000 129.10000610 530.65957642 292.82564545 -335.25695801 3 1 -2 
83 2 1 -1.00000000 129.10000610 530.32007599 292.87226105 -331.24632263 3 1 -2 
84 2 2 1.00000000 128.19999695 527.50793457 292.59028625 -329.03495026 3 1 -2 
85 2 2 1.00000000 128.19999695 526.45600128 293.44699860 -325.58184052 3 1 -2 
86 2 2 1.00000000 128.19999695 529.92944336 292.96796417 -323.88430023 3 1 -2 
87 2 1 -1.00000000 129.10000610 529.15280914 289.56217957 -321.96146393 3 1 -2 
88 2 2 1.00000000 128.19999695 527.45580292 286.25820923 -322.07774353 3 1 -2 
89 2 1 -1.00000000 129.10000610 529.86869812 283.44255066 -322.31386566 3 1 -2 
90 2 1 -1.00000000 129.10000610 533.32527161 283.23985291 -323.43743134 3 1 -2 
91 2 1 -1.00000000 129.10000610 536.33715820 285.03855133 -321.63429260 3 1 -2 
92 2 2 1.00000000 128.19999695 538.33335114 286.04415894 -318.68536377 3 1 -2 
93 2 1 -1.00000000 129.10000610 538.60765076 289.82830048 -318.18758392 3 1 -2 
94 2 2 1.00000000 128.19999695 539.88336945 290.74050140 -314.55903625 3 1 -2 
95 2 2 1.00000000 128.19999695 537.98543549 292.96337891 -311.83032990 3 1 -2 
96 2 2 1.00000000 128.19999695 540.14415741 296.23358154 -311.54537201 3 1 -2 
97 2 1 -1.00000000 129.10000610 540.29443359 298.58895111 -314.35591125 3 1 -2 
98 2 2 1.00000000 128.19999695 537.24868011 300.69992065 -314.63681030 3 1 -2 
99 2 1 -1.00000000 129.10000610 533.39104462 300.89463806 -315.29298401 3 1 -2 
100 2 2 1.00000000 128.19999695 530.81987762 298.47607422 -314.25019073 3 1 -2 
101 3 2 1.00000000 128.19999695 319.79230499 -159.20170593 74.47460175 2 -1 0 
102 3 1 -1.00000000 129.10000610 322.14494324 -158.02282715 77.20684814 2 -1 0 
103 3 2 1.00000000 128.19999695 325.58267975 -159.12342453 79.00311279 2 -1 0 
104 3 2 1.00000000 128.19999695 327.14999390 -161.12302780 81.67330170 2 -1 0 
105 3 2 1.00000000 128.19999695 327.71674347 -160.33842850 85.76464844 2 -1 0 
106 3 1 -1.00000000 129.10000610 328.25296021 -157.14465332 87.38409424 2 -1 0 
107 3 2 1.00000000 128.19999695 330.50920868 -155.34819412 84.47978210 2 -1 0 
108 3 1 -1.00000000 129.10000610 332.77519989 -157.13955307 81.91648102 2 -1 0 
109 3 1 -1.00000000 129.10000610 335.60577393 -157.23447418 79.56351471 2 -1 0 
110 3 1 -1.00000000 129.10000610 337.46070862 -156.34391403 76.30848694 2 -1 0 
111 3 2 1.00000000 128.19999695 334.64099884 -156.41568375 73.34505463 2 -1 0 
112 3 1 -1.00000000 129.10000610 332.59510040 -153.38455200 74.08609772 2 -1 0 
113 3 1 -1.00000000 129.10000610 334.71098328 -150.19595337 74.75341034 2 -1 0 
114 3 1 -1.00000000 129.10000610 337.16928101 -147.67709732 76.70953369 2 -1 0 
115 3 2 1.00000000 128.19999695 338.05440521 -146.53298569 80.04615784 2 -1 0 
116 3 2 1.00000000 128.19999695 334.76485443 -145.54072952 81.57826233 2 -1 0 
117 3 1 -1.00000000 129.10000610 332.49785614 -144.76975250 84.55021667 2 -1 0 
118 3 1 -1.00000000 129.10000610 333.56489563 -143.70575333 87.64127350 2 -1 0 
119 3 2 1.00000000 128.19999695 333.56108856 -142.67640686 91.52202606 2 -1 0 
120 3 1 -1.00000000 129.10000610 336.42789459 -141.18233490 93.79318237 2 -1 0 
121 3 1 -1.00000000 129.10000610 339.20977020 -139.28610992 91.38501740 2 -1 0 
122 3 1 -1.00000000 129.10000610 341.49607849 -139.59940338 88.18263245 2 -1 0 
123 3 2 1.00000000 128.19999695 344.69065094 -138.35650635 89.60131073 2 -1 0 
124 3 1 -1.00000000 129.10000610 348.27233124 -138.65914154 90.07749939 2 -1 0 
125 3 1 -1.00000000 129.10000610 349.75814819 -141.54280090 91.93810272 2 -1 0 
126 3 2 1.00000000 128.19999695 350.72916031 -145.33185196 90.95281219 2 -1 0 
127 3 2 1.00000000 128.19999695 353.90299988 -147.05358124 92.69512939 2 -1 0 
128 3 2 1.00000000 128.19999695 356.33434677 -149.99205780 91.61688995 2 -1 0 
129 3 2 1.00000000 128.19999695 356.15601349 -153.39611435 90.28796387 2 -1 0 
130 3 2 1.00000000 128.19999695 354.13025665 -155.63946152 88.14328766 2 -1 0 
131 3 1 -1.00000000 129.10000610 353.32094574 -158.23203278 85.51377869 2 -1 0 
132 3 1 -1.00000000 129.10000610 354.13248062 -159.07354736 82.07649994 2 -1 0 
133 3 1 -1.00000000 129.10000610 352.93921661 -162.86909485 82.49596405 2 -1 0 
134 3 2 1.00000000 128.19999695 349.43824768 -164.36531448 82.60729980 2 -1 0 
135 3 2 1.00000000 128.19999695 347.53632355 -163.07735062 79.34360504 2 -1 0 
136 3 2 1.00000000 128.19999695 345.18431091 -163.41253662 76.18907928 2 -1 0 
137 3 1 -1.00000000 129.10000610 345.43746185 -163.29496765 72.13265991 2 -1 0 
138 3 2 1.00000000 128.19999695 343.49878693 -163.04842758 69.17790985 2 -1 0 
139 3 1 -1.00000000 129.10000610 341.38356781 -161.35295868 66.23355865 2 -1 0 
140 3 1 -1.00000000 129.10000610 341.18276978 -163.06689453 62.52917862 2 -1 0 
141 3 1 -1.00000000 129.10000610 337.60125732 -162.95185471 60.97974777 2 -1 0 
142 3 2 1.00000000 128.19999695 334.75947571 -160.85786819 62.60563660 2 -1 0 
143 3 1 -1.00000000 129.10000610 335.22740936 -157.51068497 60.49477386 2 -1 0 
144 3 2 1.00000000 128.19999695 334.66632843 -154.17867661 59.38516617 2 -1 0 
145 3 2 1.00000000 128.19999695 336.01506042 -150.66032791 58.68315125 2 -1 0 
146 3 2 1.00000000 128.19999695 339.47729492 -149.75252533 57.26789093 2 -1 0 
147 3 1 -1.00000000 129.10000610 342.30854034 -150.40883255 59.75001526 2 -1 0 
148 3 2 1.00000000 128.19999695 345.59834290 -152.46714401 61.11833572 2 -1 0 
149 3 1 -1.00000000 129.10000610 345.79862976 -153.38955307 64.58607483 2 -1 0 
150 3 2 1.00000000 128.19999695 342.73651123 -154.59749985 66.91112518 2 -1 0 
151 4 2 1.00000000 128.19999695 -307.33768463 366.06583786 -10.40912342 -1 2 0 
152 4 1 -1.00000000 129.10000610 -306.99234009 362.56427765 -8.94573689 -1 2 0 
153 4 2 1.00000000 128.19999695 -306.66669464 361.56094742 -5.51745987 -1 2 0 
154 4 2 1.00000000 128.19999695 -303.19311523 361.24962616 -4.23129511 -1 2 0 
155 4 2 1.00000000 128.19999695 -300.88488770 363.59077835 -5.51413584 -1 2 0 
156 4 1 -1.00000000 129.10000610 -297.77764893 365.50687790 -4.29389524 -1 2 0 
157 4 2 1.00000000 128.19999695 -296.25489044 364.29693985 -0.78219134 -1 2 0 
158 4 1 -1.00000000 129.10000610 -296.10647583 365.41616440 2.95991755 -1 2 0 
159 4 1 -1.00000000 129.10000610 -298.66365051 366.98967743 5.19609547 -1 2 0 
160 4 1 -1.00000000 129.10000610 -301.96872711 367.41024780 3.19918537 -1 2 0 
161 4 2 1.00000000 128.19999695 -305.20579529 368.98178864 1.84722912 -1 2 0 
162 4 1 -1.00000000 129.10000610 -305.68904114 367.26732254 -1.73770571 -1 2 0 
163 4 1 -1.00000000 129.10000610 -309.57582092 365.97408676 -1.36105418 -1 2 0 
164 4 1 -1.00000000 129.10000610 -312.04058838 366.97694778 -4.24519920 -2 2 0 
165 4 2 1.00000000 128.19999695 -313.25902557 370.17133331 -5.03198528 -2 2 0 
166 4 2 1.00000000 128.19999695 -315.40097809 372.37692642 -2.54800963 -2 2 0 
167 4 1 -1.00000000 129.10000610 -318.76608276 374.26668930 -2.18537760 -2 2 0 
168 4 1 -1.00000000 129.10000610 -320.41601562 377.19276047 -2.42635655 -2 2 0 
169 4 2 1.00000000 128.19999695 -323.11363983 377.57542419 0.10241957 -2 2 0 
170 4 1 -1.00000000 129.10000610 -326.49890137 378.07002640 2.19587612 -2 2 0 
171 4 1 -1.00000000 129.10000610 -329.33258820 380.67781448 2.04764390 -2 2 0 
172 4 1 -1.00000000 129.10000610 -330.65727997 382.06915665 5.37796879 -2 2 0 
173 4 2 1.00000000 128.19999695 -327.97570801 384.32666779 7.48635387 -2 2 0 
174 4 1 -1.00000000 129.10000610 -326.73166656 388.00464821 8.31345081 -2 2 0 
175 4 1 -1.00000000 129.10000610 -324.63547516 389.95092964 6.34026623 -2 2 0 
176 4 2 1.00000000 128.19999695 -320.71617126 390.94278336 6.97700739 -2 2 0 
177 4 2 1.00000000 128.19999695 -318.99931335 392.72764206 9.85184097 -2 2 0 
178 4 2 1.00000000 128.19999695 -320.93289185 392.35870361 13.16431713 -2 2 0 
179 4 2 1.00000000 128.19999695 -322.66038513 391.57330132 16.41690445 -2 2 0 
180 4 2 1.00000000 128.19999695 -320.14809418 391.28787804 19.29826164 -2 2 0 
181 4 1 -1.00000000 129.10000610 -316.24649048 390.90716362 18.96481705 -2 2 0 
182 4 1 -1.00000000 129.10000610 -314.46038055 392.73531532 16.32640648 -2 2 0 
183 4 1 -1.00000000 129.10000610 -315.43487549 396.31717110 14.87122536 -2 2 0 
184 4 2 1.00000000 128.19999695 -312.99942017 398.05496407 12.60674858 -2 2 0 
185 4 2 1.00000000 128.19999695 -310.76515198 399.58642292 15.38673687 -1 2 0 
186 4 2 1.00000000 128.19999695 -312.20896912 401.02429008 18.84877396 -2 2 0 
187 4 1 -1.00000000 129.10000610 -313.52347565 398.47705650 21.45385170 -2 2 0 
188 4 2 1.00000000 128.19999695 -313.96423340 398.28715706 25.49085426 -2 2 0 
189 4 1 -1.00000000 129.10000610 -315.47820282 395.58467102 27.86886787 -2 2 0 
190 4 1 -1.00000000 129.10000610 -316.27676392 397.16973877 31.23619270 -2 2 0 
191 4 1 -1.00000000 129.10000610 -318.62062836 395.22200775 33.04843521 -2 2 0 
192 4 2 1.00000000 128.19999695 -318.92999268 393.57486153 36.08919525 -2 2 0 
193 4 1 -1.00000000 129.10000610 -322.27005005 394.44308090 38.03610611 -2 2 0 
194 4 2 1.00000000 128.19999695 -325.47101593 392.95047951 37.38507462 -2 2 0 
195 4 2 1.00000000 128.19999695 -325.07225800 389.88880539 35.24868393 -2 2 0 
196 4 2 1.00000000 128.19999695 -327.65964508 387.00959969 36.17755127 -2 2 0 
197 4 1 -1.00000000 129.10000610 -329.12174988 383.91250229 35.30672836 -2 2 0 
198 4 2 1.00000000 128.19999695 -328.30153656 383.03657532 31.46039963 -2 2 0 
199 4 1 -1.00000000 129.10000610 -327.97081757 379.38898849 30.17168045 -2 2 0 
200 4 2 1.00000000 128.19999695 -326.74485016 378.27780914 26.81337357 -2 2 0 
201 5 2 1.00000000 128.19999695 -344.46444702 -198.20602512 -236.13807678 -2 -1 -1 
202 5 1 -1.00000000 129.10000610 -346.91237640 -196.51183414 -233.79056549 -2 -1 -1 
203 5 2 1.00000000 128.19999695 -349.84674072 -194.56138515 -232.45351410 -2 -1 -1 
204 5 2 1.00000000 128.19999695 -351.52212524 -191.20886993 -232.35688782 -2 -1 -1 
205 5 2 1.00000000 128.19999695 -351.73643875 -187.14344788 -232.31219101 -2 -1 -1 
206 5 1 -1.00000000 129.10000610 -349.20323181 -184.15147781 -232.45344734 -2 -1 -1 
207 5 2 1.00000000 128.19999695 -345.42230225 -184.35295677 -232.46218681 -2 -1 -1 
208 5 1 -1.00000000 129.10000610 -343.76957703 -185.02116966 -235.98461723 -2 -1 -1 
209 5 1 -1.00000000 129.10000610 -342.27031708 -184.71833420 -239.17189980 -2 -1 -1 
210 5 1 -1.00000000 129.10000610 -342.69509125 -187.60984612 -241.87636566 -2 -1 -1 
211 5 2 1.00000000 128.19999695 -339.52514648 -189.53588295 -240.96647644 -2 -1 -1 
212 5 1 -1.00000000 129.10000610 -337.51339722 -192.79458904 -239.78277206 -2 -1 -1 
213 5 1 -1.00000000 129.10000610 -334.11064911 -194.35607243 -240.71456528 -2 -1 -1 
214 5 1 -1.00000000 129.10000610 -332.50821686 -196.73681450 -243.27412033 -2 -1 -1 
215 5 2 1.00000000 128.19999695 -331.88273621 -199.68107986 -245.47518921 -2 -1 -1 
216 5 2 1.00000000 128.19999695 -331.85185242 -202.99858093 -243.55121613 -2 -1 -1 
217 5 1 -1.00000000 129.10000610 -333.18610382 -205.91163230 -240.97234344 -2 -1 -1 
218 5 1 -1.00000000 129.10000610 -335.64710999 -207.05105987 -238.54540062 -2 -1 -1 
219 5 2 1.00000000 128.19999695 -338.23085022 -206.58988690 -235.81406593 -2 -1 -1 
220 5 1 -1.00000000 129.10000610 -341.46435547 -204.87134576 -235.27641678 -2 -1 -1 
221 5 1 -1.00000000 129.10000610 -343.38433838 -203.63137579 -238.29079056 -2 -1 -1 
222 5 1 -1.00000000 129.10000610 -343.08785248 -202.39814281 -241.55679321 -2 -1 -1 
223 5 2 1.00000000 128.19999695 -339.56060791 -202.20622492 -242.71842957 -2 -1 -1 
224 5 1 -1.00000000 129.10000610 -338.59336090 -204.19418049 -245.96748352 -2 -1 -1 
225 5 1 -1.00000000 129.10000610 -340.43035889 -204.09526157 -249.57127762 -2 -1 -1 
226 5 2 1.00000000 128.19999695 -343.64750671 -203.56788993 -251.66350937 -2 -1 -1 
227 5 2 1.00000000 128.19999695 -346.96381378 -204.02253509 -249.68412781 -2 -1 -1 
228 5 2 1.00000000 128.19999695 -348.78781891 -206.97754556 -250.46233749 -2 -1 -1 
229 5 2 1.00000000 128.19999695 -350.74488449 -207.94866341 -253.90925217 -2 -1 -1 
230 5 2 1.00000000 128.19999695 -352.41482162 -210.92565155 -255.93259811 -2 -1 -1 
231 5 1 -1.00000000 129.10000610 -349.50920868 -212.41870451 -257.91526413 -2 -1 -1 
232 5 1 -1.00000000 129.10000610 -346.85331726 -211.88291454 -255.25931549 -2 -1 -1 
233 5 1 -1.00000000 129.10000610 -346.05268097 -214.13362217 -252.14589310 -2 -1 -1 
234 5 2 1.00000000 128.19999695 -342.40566254 -213.46927786 -251.45520020 -2 -1 -1 
235 5 2 1.00000000 128.19999695 -340.07740784 -215.41699314 -249.34746552 -2 -1 -1 
236 5 2 1.00000000 128.19999695 -338.95759583 -218.04242229 -246.81581497 -2 -1 -1 
237 5 1 -1.00000000 129.10000610 -336.40876007 -217.27221870 -244.49874496 -2 -1 -1 
238 5 2 1.00000000 128.19999695 -332.87570953 -215.44223881 -244.52872086 -2 -1 -1 
239 5 1 -1.00000000 129.10000610 -331.56668854 -215.36896324 -248.34443283 -2 -1 -1 
240 5 1 -1.00000000 129.10000610 -328.82086182 -215.21441793 -251.43002701 -2 -1 -1 
241 5 1 -1.00000000 129.10000610 -329.54240417 -215.04301929 -254.94344711 -2 -1 -1 
242 5 2 1.00000000 128.19999695 -328.58580017 -211.72110796 -256.31722260 -2 -1 -1 
243 5 1 -1.00000000 129.10000610 -329.76336670 -208.04003239 -255.99520874 -2 -1 -1 
244 5 2 1.00000000 128.19999695 -328.12657928 -205.00558686 -256.34200287 -2 -1 -1 
245 5 2 1.00000000 128.19999695 -330.38061523 -202.86349726 -258.66439056 -2 -1 -1 
246 5 2 1.00000000 128.19999695 -334.05724335 -203.12820339 -259.08361816 -2 -1 -1 
247 5 1 -1.00000000 129.10000610 -335.36035919 -202.97539282 -255.39346695 -2 -1 -1 
248 5 2 1.00000000 128.19999695 -334.80002594 -200.95088625 -251.90194321 -2 -1 -1 
249 5 1 -1.00000000 129.10000610 -334.91695404 -197.02396011 -252.04709625 -2 -1 -1 
250 5 2 1.00000000 128.19999695 -334.44953156 -194.68583202 -249.38169861 -2 -1 -1 
251 6 2 1.00000000 128.19999695 470.49783325 -430.95310211 -164.09763336 2 -2 -1 
252 6 1 -1.00000000 129.10000610 470.15510559 -433.51665306 -161.21369934 2 -2 -1 
253 6 2 1.00000000 128.19999695 470.53606033 -432.92139053 -157.68783951 2 -2 -1 
254 6 2 1.00000000 128.19999695 473.76246262 -435.03188324 -156.77504349 2 -2 -1 
255 6 2 1.00000000 128.19999695 475.94128418 -433.15041161 -154.20146179 2 -2 -1 
256 6 1 -1.00000000 129.10000610 476.44625854 -434.51899910 -150.57012939 2 -2 -1 
257 6 2 1.00000000 128.19999695 478.44594574 -437.58956909 -149.74255753 2 -2 -1 
258 6 1 -1.00000000 129.10000610 479.05879974 -441.60204887 -150.87615967 2 -2 -1 
259 6 1 -1.00000000 129.10000610 482.04598999 -442.10513687 -152.79736710 2 -2 -1 
260 6 1 -1.00000000 129.10000610 484.36953735 -440.27455139 -150.31144714 2 -2 -1 
261 6 2 1.00000000 128.19999695 487.29169464 -439.33142471 -147.90338516 2 -2 -1 
262 6 1 -1.00000000 129.10000610 487.41040802 -441.80189705 -145.07891846 2 -2 -1 
263 6 1 -1.00000000 129.10000610 485.27740479 -442.98676109 -142.32878113 2 -2 -1 
264 6 1 -1.00000000 129.10000610 483.15700531 -440.33677101 -140.61302185 2 -2 -1 
265 6 2 1.00000000 128.19999695 481.83472443 -441.25525284 -137.24520111 2 -2 -1 
266 6 2 1.00000000 128.19999695 478.62634659 -443.17151833 -137.05718231 2 -2 -1 
267 6 1 -1.00000000 129.10000610 474.86921692 -443.56871605 -137.65824890 2 -2 -1 
268 6 1 -1.00000000 129.10000610 473.04458237 -441.96271515 -140.43187714 2 -2 -1 
269 6 2 1.00000000 128.19999695 469.07789612 -442.27361107 -140.53322601 2 -2 -1 
270 6 1 -1.00000000 129.10000610 466.32435608 -443.94249153 -138.60742188 2 -2 -1 
271 6 1 -1.00000000 129.10000610 462.84912109 -445.15357971 -136.89822388 2 -2 -1 
272 6 1 -1.00000000 129.10000610 459.24240112 -444.83021355 -137.08459473 2 -2 -1 
273 6 2 1.00000000 128.19999695 457.04783630 -444.37488556 -139.87927246 2 -2 -1 
274 6 1 -1.00000000 129.10000610 456.26910400 -446.98503494 -141.89459229 2 -2 -1 
275 6 1 -1.00000000 129.10000610 455.75752640 -449.91382217 -144.65041733 2 -2 -1 
276 6 2 1.00000000 128.19999695 452.83303452 -452.30120850 -144.09614944 2 -2 -1 
277 6 2 1.00000000 128.19999695 452.48045349 -455.94592285 -143.83014679 2 -2 -1 
278 6 2 1.00000000 128.19999695 452.66033554 -459.48295975 -143.88994980 2 -2 -1 
279 6 2 1.00000000 128.19999695 452.02579498 -462.66798401 -146.00544357 2 -2 -1 
280 6 2 1.00000000 128.19999695 449.96306992 -464.93553543 -147.88267136 2 -2 -1 
281 6 1 -1.00000000 129.10000610 446.68187714 -465.98363495 -149.22603607 2 -2 -1 
282 6 1 -1.00000000 129.10000610 442.76839066 -466.49504852 -148.45280457 2 -2 -1 
283 6 1 -1.00000000 129.10000610 442.42579079 -465.60194397 -144.84881592 2 -2 -1 
284 6 2 1.00000000 128.19999695 441.24910355 -468.02823639 -141.42170715 2 -2 -1 
285 6 2 1.00000000 128.19999695 444.72151947 -469.82054138 -141.52571869 2 -2 -1 
286 6 2 1.00000000 128.19999695 448.10039139 -468.46500397 -141.46284485 2 -2 -1 
287 6 1 -1.00000000 129.10000610 449.71478653 -469.50045013 -137.98975372 2 -2 -1 
288 6 2 1.00000000 128.19999695 452.16544724 -471.18558502 -135.92659760 2 -2 -1 
289 6 1 -1.00000000 129.10000610 450.52587509 -474.43694305 -135.32762146 2 -2 -1 
290 6 1 -1.00000000 129.10000610 451.65004349 -477.86225510 -135.54689026 2 -2 -1 
291 6 1 -1.00000000 129.10000610 450.48238373 -481.60141754 -134.90357208 2 -2 -1 
292 6 2 1.00000000 128.19999695 451.50633621 -485.03646088 -136.33367157 2 -2 -1 
293 6 1 -1.00000000 129.10000610 455.13182449 -486.05770111 -135.69091797 2 -2 -1 
294 6 2 1.00000000 128.19999695 457.96586990 -484.16196442 -137.91161346 2 -2 -1 
295 6 2 1.00000000 128.19999695 462.02991486 -484.05002594 -137.86677551 2 -2 -1 
296 6 2 1.00000000 128.19999695 462.80839920 -484.89685059 -134.03221130 2 -2 -1 
297 6 1 -1.00000000 129.10000610 464.89949036 -481.74156952 -132.84111023 2 -2 -1 
298 6 2 1.00000000 128.19999695 463.05091858 -478.42578888 -132.99393463 2 -2 -1 
299 6 1 -1.00000000 129.10000610 465.82935333 -476.30208588 -131.77915192 2 -2 -1 
300 6 2 1.00000000 128.19999695 469.12539673 -477.70827103 -133.46014404 2 -2 -1 
301 7 2 1.00000000 128.19999695 -14.11330414 -59.99483490 -794.86581802 0 0 -4 
302 7 1 -1.00000000 129.10000610 -11.80742741 -59.82728958 -791.62538910 0 0 -4 
303 7 2 1.00000000 128.19999695 -12.50970459 -56.24164200 -789.96615219 0 0 -4 
304 7 2 1.00000000 128.19999695 -16.28777313 -54.74961090 -789.48751450 0 0 -4 
305 7 2 1.00000000 128.19999695 -19.08245468 -52.30234909 -790.89372253 0 0 -4 
306 7 1 -1.00000000 129.10000610 -21.95133209 -52.63744354 -788.65475845 0 0 -4 
307 7 2 1.00000000 128.19999695 -24.34255409 -52.96622086 -785.66668320 0 0 -4 
308 7 1 -1.00000000 129.10000610 -24.62093735 -56.72687531 -785.92802048 0 0 -4 
309 7 1 -1.00000000 129.10000610 -26.49939537 -58.74238968 -783.21496582 0 0 -4 
310 7 1 -1.00000000 129.10000610 -28.71893501 -61.71873093 -781.66173172 0 0 -4 
311 7 2 1.00000000 128.19999695 -31.34450722 -62.74346924 -779.01226044 0 0 -4 
312 7 1 -1.00000000 129.10000610 -33.27822495 -61.77177429 -775.83195877 0 0 -4 
313 7 1 -1.00000000 129.10000610 -30.66375542 -59.96934891 -773.68470383 0 0 -4 
314 7 1 -1.00000000 129.10000610 -27.48987770 -62.17536545 -773.22904968 0 0 -4 
315 7 2 1.00000000 128.19999695 -24.21125984 -62.27108765 -774.94169617 0 0 -4 
316 7 2 1.00000000 128.19999695 -20.74194527 -61.91585922 -776.35538864 0 0 -4 
317 7 1 -1.00000000 129.10000610 -17.81650352 -61.36937714 -774.22735596 0 0 -4 
318 7 1 -1.00000000 129.10000610 -15.47145271 -62.43987274 -771.82484055 0 0 -4 
319 7 2 1.00000000 128.19999695 -11.53111267 -63.48281097 -771.47748947 0 0 -4 
320 7 1 -1.00000000 129.10000610 -8.11577988 -61.72297668 -771.47736740 0 0 -4 
321 7 1 -1.00000000 129.10000610 -5.29215622 -61.14134979 -769.40084457 0 0 -4 
322 7 1 -1.00000000 129.10000610 -2.56929040 -62.32471848 -766.64001465 0 0 -4 
323 7 2 1.00000000 128.19999695 -2.02620339 -62.33309555 -762.96307373 0 0 -4 
324 7 1 -1.00000000 129.10000610 -3.71308613 -62.87402725 -759.65149689 0 0 -4 
325 7 1 -1.00000000 129.10000610 -4.03014708 -59.96919632 -757.31144714 0 0 -4 
326 7 2 1.00000000 128.19999695 -1.48077691 -58.45360184 -754.96995544 0 0 -4 
327 7 2 1.00000000 128.19999695 -2.85940266 -57.01786041 -752.06684875 0 0 -4 
328 7 2 1.00000000 128.19999695 -6.26832724 -56.44297791 -750.56491089 0 0 -4 
329 7 2 1.00000000 128.19999695 -6.38932323 -58.62246704 -747.13516998 0 0 -4 
330 7 2 1.00000000 128.19999695 -9.63151550 -61.03201675 -746.64270782 0 0 -4 
331 7 1 -1.00000000 129.10000610 -12.14324188 -60.71909332 -749.74859619 0 0 -4 
332 7 1 -1.00000000 129.10000610 -13.50106430 -63.47269821 -751.54860687 0 0 -4 
333 7 1 -1.00000000 129.10000610 -11.36628819 -66.58957672 -750.79010010 0 0 -4 
334 7 2 1.00000000 128.19999695 -7.93701553 -68.65770721 -751.92936707 0 0 -4 
335 7 2 1.00000000 128.19999695 -9.58451271 -71.24430084 -754.18368530 0 0 -4 
336 7 2 1.00000000 128.19999695 -9.35055447 -74.71273041 -752.70465088 0 0 -4 
337 7 1 -1.00000000 129.10000610 -6.77478218 -76.95413208 -750.31229401 0 0 -4 
338 7 2 1.00000000 128.19999695 -3.87310386 -76.09953308 -747.75585938 0 0 -4 
339 7 1 -1.00000000 129.10000610 -2.16252756 -76.30806732 -744.08905029 0 0 -4 
340 7 1 -1.00000000 129.10000610 -0.66225493 -79.79241180 -743.64476776 0 0 -4 
341 7 1 -1.00000000 129.10000610 -2.10191894 -82.53147888 -741.20932770 0 0 -4 
342 7 2 1.00000000 128.19999695 0.39467859 -84.38319397 -738.84995270 0 0 -4 
343 7 1 -1.00000000 129.10000610 1.72117746 -87.27015686 -736.94144440 0 0 -4 
344 7 2 1.00000000 128.19999695 5.13381004 -87.76814270 -735.09853363 0 0 -4 
345 7 2 1.00000000 128.19999695 8.38054466 -89.18441772 -734.01021576 0 0 -4 
346 7 2 1.00000000 128.19999695 10.88227081 -87.79667664 -736.80825043 0 0 -4 
347 7 1 -1.00000000 129.10000610 10.92525768 -88.36172485 -740.63366699 0 0 -4 
348 7 2 1.00000000 128.19999695 11.34443855 -92.33587646 -740.83700562 0 0 -4 
349 7 1 -1.00000000 129.10000610 8.85926914 -94.91657257 -742.14693451 0 0 -4 
350 7 2 1.00000000 128.19999695 6.51891232 -97.42443085 -740.62398529 0 0 -4 
351 8 2 1.00000000 128.19999695 10.84202862 -254.08090210 614.14830589 0 -1 3 
352 8 1 -1.00000000 129.10000610 8.39257336 -251.90554428 612.66032410 0 -1 3 
353 8 2 1.00000000 128.19999695 5.10214996 -250.76728058 611.36495876 0 -1 3 
354 8 2 1.00000000 128.19999695 5.10529232 -250.40462112 607.48446560 0 -1 3 
355 8 2 1.00000000 128.19999695 6.56401730 -252.46249008 604.63539314 0 -1 3 
356 8 1 -1.00000000 129.10000610 8.48658466 -252.31721878 601.36593628 0 -1 3 
357 8 2 1.00000000 128.19999695 11.46201897 -254.55186844 601.02827835 0 -1 3 
358 8 1 -1.00000000 129.10000610 14.95473766 -253.60393906 600.31069374 0 -1 3 
359 8 1 -1.00000000 129.10000610 16.83475113 -253.10208130 603.46287918 0 -1 3 
360 8 1 -1.00000000 129.10000610 18.10898399 -252.62035751 607.12709808 0 -1 3 
361 8 2 1.00000000 128.19999695 17.54023361 -249.78664017 609.46932125 0 -1 3 
362 8 1 -1.00000000 129.10000610 18.41508675 -249.60140991 613.19065380 0 -1 3 
363 8 1 -1.00000000 129.10000610 19.43989754 -252.30730057 615.65454245 0 -1 3 
364 8 1 -1.00000000 129.10000610 21.64645767 -249.74382401 617.34086227 0 -1 3 
365 8 2 1.00000000 128.19999695 25.24866104 -250.69589233 616.39956141 0 -1 3 
366 8 2 1.00000000 128.19999695 29.05821037 -250.76822281 617.23581982 0 -1 3 
367 8 1 -1.00000000 129.10000610 32.50787735 -250.65480042 619.04158640 0 -1 3 
368 8 1 -1.00000000 129.10000610 31.97913742 -247.65000534 621.50272447 0 -1 3 