ITEM: TIMESTEP
43050000 
ITEM: NUMBER OF ATOMS 
25000 
ITEM: BOX BOUNDS pp pp pp 
-103.678017 103.678017 
-103.678017 103.678017 
-103.678017 103.678017 
ITEM: ATOMS id mol type q mass xu yu zu ix iy iz 
1 1 2 1.00000000 128.19999695 558.80948639 -134.04587555 -317.56734467 3 -1 -2 
2 1 1 -1.00000000 129.10000610 558.26105499 -136.23277283 -320.76773834 3 -1 -2 
3 1 2 1.00000000 128.19999695 555.72571564 -135.19274139 -323.45339203 3 -1 -2 
4 1 2 1.00000000 128.19999695 552.37892151 -135.72462463 -321.90270233 3 -1 -2 
5 1 2 1.00000000 128.19999695 549.10383606 -135.94340515 -324.12033081 3 -1 -2 
6 1 1 -1.00000000 129.10000610 549.82035828 -133.89402008 -327.35173798 3 -1 -2 
7 1 2 1.00000000 128.19999695 552.71503448 -133.31843567 -329.45507050 3 -1 -2 
8 1 1 -1.00000000 129.10000610 555.20370483 -135.98407745 -330.31755829 3 -1 -2 
9 1 1 -1.00000000 129.10000610 554.19166565 -139.53699493 -330.52639771 3 -1 -2 
10 1 1 -1.00000000 129.10000610 551.89003754 -141.59803009 -328.65962982 3 -1 -2 
11 1 2 1.00000000 128.19999695 548.32270813 -140.65124512 -329.62773895 3 -1 -2 
12 1 1 -1.00000000 129.10000610 545.33787537 -141.71070099 -327.62226105 3 -1 -2 
13 1 1 -1.00000000 129.10000610 542.82344818 -139.26504517 -328.99996185 3 -1 -2 
14 1 1 -1.00000000 129.10000610 543.44865417 -135.61585999 -330.02843475 3 -1 -2 
15 1 2 1.00000000 128.19999695 545.08579254 -132.25004578 -331.23806763 3 -1 -2 
16 1 2 1.00000000 128.19999695 543.27501678 -130.96484375 -334.47988129 3 -1 -2 
17 1 1 -1.00000000 129.10000610 539.87287140 -129.02880859 -335.33664703 3 -1 -2 
18 1 1 -1.00000000 129.10000610 536.36521912 -127.39250946 -336.32152557 3 -1 -2 
19 1 2 1.00000000 128.19999695 534.58731842 -128.06985474 -339.45199585 3 -1 -2 
20 1 1 -1.00000000 129.10000610 534.76724243 -128.59964752 -343.04241180 3 -1 -2 
21 1 1 -1.00000000 129.10000610 533.68363953 -132.20148468 -344.20719910 3 -1 -2 
22 1 1 -1.00000000 129.10000610 535.16871643 -135.73759460 -345.37775421 3 -1 -2 
23 1 2 1.00000000 128.19999695 538.30950928 -137.01006317 -343.42514801 3 -1 -2 
24 1 1 -1.00000000 129.10000610 541.55162048 -137.40433502 -345.07962036 3 -1 -2 
25 1 1 -1.00000000 129.10000610 545.40368652 -137.03962708 -345.72601318 3 -1 -2 
26 1 2 1.00000000 128.19999695 546.96836853 -136.02806091 -349.07064819 3 -1 -2 
27 1 2 1.00000000 128.19999695 548.44422150 -139.26533508 -350.28002930 3 -1 -2 
28 1 2 1.00000000 128.19999695 548.60854340 -142.35219574 -347.92885590 3 -1 -2 
29 1 2 1.00000000 128.19999695 548.49121094 -146.03232574 -346.90228271 3 -1 -2 
30 1 2 1.00000000 128.19999695 548.57518005 -149.66588211 -347.99159241 3 -1 -2 
31 1 1 -1.00000000 129.10000610 547.65723419 -153.03199387 -346.63661957 3 -1 -2 
32 1 1 -1.00000000 129.10000610 548.45203400 -153.18053055 -343.03859711 3 -1 -2 
33 1 1 -1.00000000 129.10000610 547.75762939 -153.51842880 -339.48968506 3 -1 -2 
34 1 2 1.00000000 128.19999695 549.31577301 -152.81790924 -335.97008514 3 -1 -2 
35 1 2 1.00000000 128.19999695 552.81718445 -151.29327011 -335.95646667 3 -1 -2 
36 1 2 1.00000000 128.19999695 556.46678162 -152.66677856 -335.54911804 3 -1 -2 
37 1 1 -1.00000000 129.10000610 559.11227036 -150.19091797 -334.54769135 3 -1 -2 
38 1 2 1.00000000 128.19999695 562.01940155 -152.39481735 -332.46121979 3 -1 -2 
39 1 1 -1.00000000 129.10000610 564.30596924 -154.87541580 -334.12265015 3 -1 -2 
40 1 1 -1.00000000 129.10000610 563.21628571 -158.12445450 -336.14831543 3 -1 -2 
41 1 1 -1.00000000 129.10000610 562.83223724 -156.80094910 -339.65589905 3 -1 -2 
42 1 2 1.00000000 128.19999695 559.26079941 -156.60052872 -340.80292511 3 -1 -2 
43 1 1 -1.00000000 129.10000610 558.39923859 -156.92065048 -344.70598602 3 -1 -2 
44 1 2 1.00000000 128.19999695 558.52552795 -160.33167648 -345.85865784 3 -1 -2 
45 1 2 1.00000000 128.19999695 554.98184967 -161.48818970 -346.20497894 3 -1 -2 
46 1 2 1.00000000 128.19999695 552.96472931 -160.07130432 -343.91196442 3 -1 -2 
47 1 1 -1.00000000 129.10000610 551.16486359 -161.03024673 -340.61060333 3 -1 -2 
48 1 2 1.00000000 128.19999695 550.62072754 -160.48207092 -337.09844971 3 -1 -2 
49 1 1 -1.00000000 129.10000610 550.29257202 -160.46675110 -333.35290527 3 -1 -2 
50 1 2 1.00000000 128.19999695 548.27521515 -161.28869629 -330.30451965 3 -1 -2 
51 2 2 1.00000000 128.19999695 501.61511230 399.09491253 -297.94447327 2 2 -1 
52 2 1 -1.00000000 129.10000610 498.75685883 399.60763454 -295.80812073 2 2 -1 
53 2 2 1.00000000 128.19999695 495.04070282 400.19126034 -295.18943787 2 2 -1 
54 2 2 1.00000000 128.19999695 491.18061066 400.46365929 -295.93203735 2 2 -1 
55 2 2 1.00000000 128.19999695 490.16666412 396.70706558 -295.20394897 2 2 -1 
56 2 1 -1.00000000 129.10000610 487.48889160 394.57612991 -296.26319885 2 2 -1 
57 2 2 1.00000000 128.19999695 484.35748291 392.49699974 -294.88882446 2 2 -1 
58 2 1 -1.00000000 129.10000610 484.17692566 390.52318192 -291.88082123 2 2 -1 
59 2 1 -1.00000000 129.10000610 480.76367950 390.33482742 -290.33925629 2 2 -1 
60 2 1 -1.00000000 129.10000610 477.44538879 391.29673958 -288.82285309 2 2 -1 
61 2 2 1.00000000 128.19999695 475.11777878 388.40621758 -287.79029083 2 2 -1 
62 2 1 -1.00000000 129.10000610 474.55007553 385.58656120 -290.50690460 2 2 -1 
63 2 1 -1.00000000 129.10000610 475.86251450 382.29084015 -292.21782684 2 2 -1 
64 2 1 -1.00000000 129.10000610 479.13109589 380.58732986 -293.99540710 2 2 -1 
65 2 2 1.00000000 128.19999695 482.12045288 381.70738220 -296.65114594 2 2 -1 
66 2 2 1.00000000 128.19999695 480.74610138 384.41423225 -298.75933838 2 2 -1 
67 2 1 -1.00000000 129.10000610 481.33099365 385.31819534 -302.64488220 2 2 -1 
68 2 1 -1.00000000 129.10000610 484.37996674 384.17282486 -304.33102417 2 2 -1 
69 2 2 1.00000000 128.19999695 486.37501526 383.79123116 -307.65722656 2 2 -1 
70 2 1 -1.00000000 129.10000610 484.50464630 382.36591721 -310.84745026 2 2 -1 
71 2 1 -1.00000000 129.10000610 483.39701080 379.21111679 -312.38098145 2 2 -2 
72 2 1 -1.00000000 129.10000610 480.75658417 376.98429871 -311.95992279 2 2 -2 
73 2 2 1.00000000 128.19999695 478.34469223 376.73417664 -309.15334320 2 2 -1 
74 2 1 -1.00000000 129.10000610 478.97210693 376.66213989 -305.14163208 2 2 -1 
75 2 1 -1.00000000 129.10000610 476.88195419 378.97370529 -303.11576080 2 2 -1 
76 2 2 1.00000000 128.19999695 473.25934219 379.97534180 -304.39565277 2 2 -1 
77 2 2 1.00000000 128.19999695 472.88980484 382.79084396 -307.31306458 2 2 -1 
78 2 2 1.00000000 128.19999695 470.18465424 385.41536713 -306.80806732 2 2 -1 
79 2 2 1.00000000 128.19999695 467.99153900 387.83632851 -305.10315704 2 2 -1 
80 2 2 1.00000000 128.19999695 466.38529587 390.42569351 -302.95934296 2 2 -1 
81 2 1 -1.00000000 129.10000610 462.40940475 389.82611656 -301.96804810 2 2 -1 
82 2 1 -1.00000000 129.10000610 460.17336273 387.50720406 -299.72075653 2 2 -1 
83 2 1 -1.00000000 129.10000610 461.50885010 386.63069534 -296.27914429 2 2 -1 
84 2 2 1.00000000 128.19999695 459.81374741 387.44381142 -293.12242126 2 2 -1 
85 2 2 1.00000000 128.19999695 458.36809921 389.89225960 -290.37304688 2 2 -1 
86 2 2 1.00000000 128.19999695 459.03807449 393.42639160 -289.21150970 2 2 -1 
87 2 1 -1.00000000 129.10000610 461.26296997 395.89983177 -290.55510712 2 2 -1 
88 2 2 1.00000000 128.19999695 465.19675827 395.74217224 -289.67369080 2 2 -1 
89 2 1 -1.00000000 129.10000610 468.83523941 396.29864693 -288.45170593 2 2 -1 
90 2 1 -1.00000000 129.10000610 471.83311844 395.03634644 -290.78060913 2 2 -1 
91 2 1 -1.00000000 129.10000610 470.53752136 391.85827255 -292.55381775 2 2 -1 
92 2 2 1.00000000 128.19999695 469.06972122 391.26236343 -295.92938995 2 2 -1 
93 2 1 -1.00000000 129.10000610 470.87265396 389.99724579 -299.18074036 2 2 -1 
94 2 2 1.00000000 128.19999695 472.45148087 386.80650711 -299.65596771 2 2 -1 
95 2 2 1.00000000 128.19999695 475.41696167 387.10490990 -302.07853699 2 2 -1 
96 2 2 1.00000000 128.19999695 476.37376785 388.76773071 -305.20188904 2 2 -1 
97 2 1 -1.00000000 129.10000610 477.50711441 387.71948624 -308.79981995 2 2 -1 
98 2 2 1.00000000 128.19999695 477.02384186 386.41352463 -312.51387787 2 2 -2 
99 2 1 -1.00000000 129.10000610 474.21446228 388.13786888 -314.63164520 2 2 -2 
100 2 2 1.00000000 128.19999695 471.25966263 389.98801231 -313.24600983 2 2 -2 
101 3 2 1.00000000 128.19999695 388.15735054 -151.80200195 79.86331940 2 -1 0 
102 3 1 -1.00000000 129.10000610 386.92175293 -155.37882233 80.56213379 2 -1 0 
103 3 2 1.00000000 128.19999695 385.90814972 -157.05532074 83.79166412 2 -1 0 
104 3 2 1.00000000 128.19999695 386.71218872 -155.84251785 87.43016052 2 -1 0 
105 3 2 1.00000000 128.19999695 384.47251320 -154.15985489 89.82429504 2 -1 0 
106 3 1 -1.00000000 129.10000610 384.53251266 -151.46189117 92.53327179 2 -1 0 
107 3 2 1.00000000 128.19999695 382.42300034 -149.12350845 95.06245422 2 -1 0 
108 3 1 -1.00000000 129.10000610 380.64116669 -146.07885742 93.38684845 2 -1 0 
109 3 1 -1.00000000 129.10000610 377.88800049 -143.52444077 92.60665894 2 -1 0 
110 3 1 -1.00000000 129.10000610 375.16808319 -140.24638367 92.37331390 2 -1 0 
111 3 2 1.00000000 128.19999695 372.84141159 -137.42270660 92.77044678 2 -1 0 
112 3 1 -1.00000000 129.10000610 374.14227295 -134.76892853 95.60517120 2 -1 0 
113 3 1 -1.00000000 129.10000610 374.37322998 -132.37432098 98.63822174 2 -1 0 
114 3 1 -1.00000000 129.10000610 373.89467621 -128.69744873 97.99871826 2 -1 0 
115 3 2 1.00000000 128.19999695 377.62778091 -127.90748596 98.54698181 2 -1 0 
116 3 2 1.00000000 128.19999695 379.92384338 -127.04951477 95.45935822 2 -1 0 
117 3 1 -1.00000000 129.10000610 381.87716675 -128.62149811 92.22367096 2 -1 0 
118 3 1 -1.00000000 129.10000610 378.64323425 -131.22010040 90.78620148 2 -1 0 
119 3 2 1.00000000 128.19999695 377.73862076 -132.51496124 87.42669678 2 -1 0 
120 3 1 -1.00000000 129.10000610 375.41166687 -133.30178833 84.51635742 2 -1 0 
121 3 1 -1.00000000 129.10000610 374.00659943 -135.44548798 81.60942841 2 -1 0 
122 3 1 -1.00000000 129.10000610 373.38513184 -139.27574158 81.64107513 2 -1 0 
123 3 2 1.00000000 128.19999695 374.45444870 -142.83563995 83.17023468 2 -1 0 
124 3 1 -1.00000000 129.10000610 372.11473083 -145.72903061 81.70812225 2 -1 0 
125 3 1 -1.00000000 129.10000610 370.28728104 -147.08098221 84.57492065 2 -1 0 
126 3 2 1.00000000 128.19999695 367.04478073 -145.34712219 86.04271698 2 -1 0 
127 3 2 1.00000000 128.19999695 363.25880051 -146.74612045 85.92010498 2 -1 0 
128 3 2 1.00000000 128.19999695 359.82713318 -147.04032135 84.13873291 2 -1 0 
129 3 2 1.00000000 128.19999695 357.96397018 -145.62189865 81.36923218 2 -1 0 
130 3 2 1.00000000 128.19999695 357.00356293 -141.77123260 81.38938141 2 -1 0 
131 3 1 -1.00000000 129.10000610 356.95434570 -138.95705414 83.85613251 2 -1 0 
132 3 1 -1.00000000 129.10000610 360.37757874 -137.69366455 85.16683960 2 -1 0 
133 3 1 -1.00000000 129.10000610 363.52908707 -135.42955017 84.29827118 2 -1 0 
134 3 2 1.00000000 128.19999695 367.09906006 -136.24430084 82.59162140 2 -1 0 
135 3 2 1.00000000 128.19999695 367.44987106 -138.11134338 79.16763306 2 -1 0 
136 3 2 1.00000000 128.19999695 368.33129883 -140.67173004 76.25434113 2 -1 0 
137 3 1 -1.00000000 129.10000610 365.29695892 -142.75106049 75.30016327 2 -1 0 
138 3 2 1.00000000 128.19999695 361.57169342 -143.13964081 75.35752106 2 -1 0 
139 3 1 -1.00000000 129.10000610 358.47358322 -140.89363861 74.60404205 2 -1 0 
140 3 1 -1.00000000 129.10000610 355.42886734 -138.52696228 75.65461731 2 -1 0 
141 3 1 -1.00000000 129.10000610 355.11141968 -136.40420532 72.65705109 2 -1 0 
142 3 2 1.00000000 128.19999695 352.29520798 -137.10451508 70.37377930 2 -1 0 
143 3 1 -1.00000000 129.10000610 352.45333099 -133.91958618 67.66252136 2 -1 0 
144 3 2 1.00000000 128.19999695 353.71751022 -130.39495850 66.61354828 2 -1 0 
145 3 2 1.00000000 128.19999695 356.65645218 -127.88196564 65.96118164 2 -1 0 
146 3 2 1.00000000 128.19999695 359.52682877 -129.03506470 68.49501801 2 -1 0 
147 3 1 -1.00000000 129.10000610 362.12699127 -126.31117249 69.68608093 2 -1 0 
148 3 2 1.00000000 128.19999695 363.76142502 -125.87196350 73.07926941 2 -1 0 
149 3 1 -1.00000000 129.10000610 364.88721085 -127.35881042 76.50711823 2 -1 0 
150 3 2 1.00000000 128.19999695 362.21348190 -128.93944550 78.93688965 2 -1 0 
151 4 2 1.00000000 128.19999695 -342.77769470 407.65991735 67.14807892 -2 2 0 
152 4 1 -1.00000000 129.10000610 -338.84977722 407.68247652 67.14952850 -2 2 0 
153 4 2 1.00000000 128.19999695 -335.10353088 408.33958817 67.83457947 -2 2 0 
154 4 2 1.00000000 128.19999695 -333.52847290 404.91122246 66.72664642 -2 2 0 
155 4 2 1.00000000 128.19999695 -329.94531250 404.87965870 65.84335327 -2 2 0 
156 4 1 -1.00000000 129.10000610 -327.92195129 404.52990723 68.68601227 -2 2 0 
157 4 2 1.00000000 128.19999695 -325.24467468 401.97221470 69.46405029 -2 2 0 
158 4 1 -1.00000000 129.10000610 -323.21373749 400.09408474 72.18001556 -2 2 0 
159 4 1 -1.00000000 129.10000610 -320.37897491 397.59202576 72.54817963 -2 2 0 
160 4 1 -1.00000000 129.10000610 -320.52072906 394.81541061 75.22671509 -2 2 0 
161 4 2 1.00000000 128.19999695 -318.97330475 394.86339188 78.50875092 -2 2 0 
162 4 1 -1.00000000 129.10000610 -317.15805817 394.90964127 81.61805725 -2 2 0 
163 4 1 -1.00000000 129.10000610 -318.21958160 397.26972008 84.76952362 -2 2 0 
164 4 1 -1.00000000 129.10000610 -317.44451141 400.62102509 85.79189301 -2 2 0 
165 4 2 1.00000000 128.19999695 -319.42432404 403.22292709 87.34564209 -2 2 0 
166 4 2 1.00000000 128.19999695 -321.90264893 402.75341320 89.88759613 -2 2 0 
167 4 1 -1.00000000 129.10000610 -322.52484894 399.80354214 92.27537537 -2 2 0 
168 4 1 -1.00000000 129.10000610 -321.68878937 396.14069366 91.01548767 -2 2 0 
169 4 2 1.00000000 128.19999695 -320.45573425 393.07447243 90.17676544 -2 2 0 
170 4 1 -1.00000000 129.10000610 -322.39580536 390.08070755 88.43551636 -2 2 0 
171 4 1 -1.00000000 129.10000610 -324.99324799 388.21976471 90.75802612 -2 2 0 
172 4 1 -1.00000000 129.10000610 -328.11854553 386.31141472 90.06129456 -2 2 0 
173 4 2 1.00000000 128.19999695 -330.36135101 383.99262810 92.32020569 -2 2 0 
174 4 1 -1.00000000 129.10000610 -332.52690887 386.21826935 94.48529816 -2 2 0 
175 4 1 -1.00000000 129.10000610 -333.37245178 389.99919128 94.27170563 -2 2 0 
176 4 2 1.00000000 128.19999695 -332.16510010 393.25178146 95.79913330 -2 2 0 
177 4 2 1.00000000 128.19999695 -331.53133392 395.39137650 98.80179596 -2 2 0 
178 4 2 1.00000000 128.19999695 -330.53390503 398.98244858 99.18003082 -2 2 0 
179 4 2 1.00000000 128.19999695 -332.12121582 401.42325687 96.30032349 -2 2 0 
180 4 2 1.00000000 128.19999695 -331.81185913 405.06881237 97.71652222 -2 2 0 
181 4 1 -1.00000000 129.10000610 -328.46481323 406.30307293 96.13916016 -2 2 0 
182 4 1 -1.00000000 129.10000610 -325.32323456 405.06022358 97.80084229 -2 2 0 
183 4 1 -1.00000000 129.10000610 -324.77296448 403.00099373 101.21001434 -2 2 0 
184 4 2 1.00000000 128.19999695 -322.12500763 403.96237659 103.60902405 -2 2 0 
185 4 2 1.00000000 128.19999695 -322.86806488 406.21448898 106.98121643 -2 2 1 
186 4 2 1.00000000 128.19999695 -325.24248505 406.17884922 110.02448273 -2 2 1 
187 4 1 -1.00000000 129.10000610 -328.79659271 404.94420624 110.15222931 -2 2 1 
188 4 2 1.00000000 128.19999695 -332.69230652 405.03002453 109.41307068 -2 2 1 
189 4 1 -1.00000000 129.10000610 -333.18534088 402.80131435 112.49924469 -2 2 1 
190 4 1 -1.00000000 129.10000610 -336.74951935 403.94311142 113.18718719 -2 2 1 
191 4 1 -1.00000000 129.10000610 -336.77714539 406.56003189 115.99900055 -2 2 1 
192 4 2 1.00000000 128.19999695 -339.02322388 407.11199999 118.93906403 -2 2 1 
193 4 1 -1.00000000 129.10000610 -336.62210846 408.08538103 121.70549774 -2 2 1 
194 4 2 1.00000000 128.19999695 -334.55158997 408.22871780 124.97090149 -2 2 1 
195 4 2 1.00000000 128.19999695 -337.31745148 407.52669144 128.21591949 -2 2 1 
196 4 2 1.00000000 128.19999695 -338.41029358 404.28718472 129.99967194 -2 2 1 
197 4 1 -1.00000000 129.10000610 -338.55731201 401.61066151 127.31470490 -2 2 1 
198 4 2 1.00000000 128.19999695 -340.69191742 398.78209686 126.28179169 -2 2 1 
199 4 1 -1.00000000 129.10000610 -339.42205048 395.14165115 126.37419128 -2 2 1 
200 4 2 1.00000000 128.19999695 -339.36158752 392.80806732 129.08071899 -2 2 1 
201 5 2 1.00000000 128.19999695 -305.36392212 -234.54725075 -280.32895660 -1 -1 -1 
202 5 1 -1.00000000 129.10000610 -308.43120575 -234.36208916 -282.60295868 -1 -1 -1 
203 5 2 1.00000000 128.19999695 -309.81149292 -237.91100693 -282.14505005 -1 -1 -1 
204 5 2 1.00000000 128.19999695 -308.92926025 -240.66188431 -279.73088074 -1 -1 -1 
205 5 2 1.00000000 128.19999695 -310.36565399 -240.09400940 -276.29860687 -1 -1 -1 
206 5 1 -1.00000000 129.10000610 -313.81976318 -239.17764664 -275.81095123 -2 -1 -1 
207 5 2 1.00000000 128.19999695 -316.47472382 -236.98922157 -276.29777527 -2 -1 -1 
208 5 1 -1.00000000 129.10000610 -319.57850647 -236.75294304 -278.33023834 -2 -1 -1 
209 5 1 -1.00000000 129.10000610 -319.85263824 -239.95491028 -280.45185089 -2 -1 -1 
210 5 1 -1.00000000 129.10000610 -316.69679260 -241.75419998 -282.12920380 -2 -1 -1 
211 5 2 1.00000000 128.19999695 -314.69625092 -244.24737549 -279.68150330 -2 -1 -1 
212 5 1 -1.00000000 129.10000610 -312.88552856 -246.10684204 -276.46046448 -2 -1 -1 
213 5 1 -1.00000000 129.10000610 -312.03995514 -246.59331894 -272.53275299 -2 -1 -1 
214 5 1 -1.00000000 129.10000610 -313.10712433 -246.71298218 -268.72550964 -2 -1 -1 
215 5 2 1.00000000 128.19999695 -315.51216125 -246.93259811 -265.68984222 -2 -1 -1 
216 5 2 1.00000000 128.19999695 -315.06455994 -247.86756897 -262.02827072 -2 -1 -1 
217 5 1 -1.00000000 129.10000610 -317.18120575 -250.47793579 -260.11330795 -2 -1 -1 
218 5 1 -1.00000000 129.10000610 -320.02485657 -247.81085968 -259.32522583 -2 -1 -1 
219 5 2 1.00000000 128.19999695 -322.96435547 -245.51986694 -259.42617798 -2 -1 -1 
220 5 1 -1.00000000 129.10000610 -323.66379547 -242.41511536 -261.58919525 -2 -1 -1 
221 5 1 -1.00000000 129.10000610 -321.88630676 -242.05651474 -265.02220154 -2 -1 -1 
222 5 1 -1.00000000 129.10000610 -318.56834412 -241.17201996 -264.34426117 -2 -1 -1 
223 5 2 1.00000000 128.19999695 -315.27028656 -239.48146057 -265.56729126 -2 -1 -1 
224 5 1 -1.00000000 129.10000610 -314.60758209 -235.84973717 -265.57583237 -2 -1 -1 
225 5 1 -1.00000000 129.10000610 -314.20906067 -233.15404129 -262.83250046 -2 -1 -1 
226 5 2 1.00000000 128.19999695 -315.74672699 -230.09886360 -263.44583893 -2 -1 -1 
227 5 2 1.00000000 128.19999695 -319.64452362 -230.47196579 -263.25148010 -2 -1 -1 
228 5 2 1.00000000 128.19999695 -321.94008636 -230.38879585 -259.78358459 -2 -1 -1 
229 5 2 1.00000000 128.19999695 -323.99805450 -227.76386452 -258.37837219 -2 -1 -1 
230 5 2 1.00000000 128.19999695 -327.70783234 -227.68947029 -257.39735413 -2 -1 -1 
231 5 1 -1.00000000 129.10000610 -329.32790375 -229.83388901 -254.18988419 -2 -1 -1 
232 5 1 -1.00000000 129.10000610 -330.43600464 -233.55421257 -254.21173096 -2 -1 -1 
233 5 1 -1.00000000 129.10000610 -330.83847809 -236.57399940 -252.02995682 -2 -1 -1 
234 5 2 1.00000000 128.19999695 -330.86972046 -236.77386475 -248.43526077 -2 -1 -1 
235 5 2 1.00000000 128.19999695 -327.39529419 -235.77040672 -247.12094879 -2 -1 -1 
236 5 2 1.00000000 128.19999695 -324.38380432 -238.15031624 -248.21827698 -2 -1 -1 
237 5 1 -1.00000000 129.10000610 -323.25195312 -238.91094971 -251.68114853 -2 -1 -1 
238 5 2 1.00000000 128.19999695 -325.43752289 -238.34883690 -254.52604294 -2 -1 -1 
239 5 1 -1.00000000 129.10000610 -327.40038300 -240.67463303 -256.11199951 -2 -1 -1 
240 5 1 -1.00000000 129.10000610 -328.70499420 -243.83884430 -257.59323502 -2 -1 -1 
241 5 1 -1.00000000 129.10000610 -328.86977386 -247.35580063 -258.00481415 -2 -1 -1 
242 5 2 1.00000000 128.19999695 -328.53203583 -249.30153275 -261.54912949 -2 -1 -1 
243 5 1 -1.00000000 129.10000610 -327.36092377 -251.32368088 -264.52669907 -2 -1 -1 
244 5 2 1.00000000 128.19999695 -324.35828400 -253.64186859 -263.59567642 -2 -1 -1 
245 5 2 1.00000000 128.19999695 -322.84470367 -255.82790375 -260.69586945 -2 -1 -1 
246 5 2 1.00000000 128.19999695 -321.49067688 -254.66257477 -257.09186935 -2 -1 -1 
247 5 1 -1.00000000 129.10000610 -321.49790192 -257.63837051 -254.66091537 -2 -1 -1 
248 5 2 1.00000000 128.19999695 -324.85986328 -258.43595886 -252.64469147 -2 -1 -1 
249 5 1 -1.00000000 129.10000610 -324.31569672 -260.87724304 -249.99682999 -2 -1 -1 
250 5 2 1.00000000 128.19999695 -324.25725555 -259.55093765 -246.22915649 -2 -1 -1 
251 6 2 1.00000000 128.19999695 393.37288857 -477.91540527 -123.43932343 2 -2 -1 
252 6 1 -1.00000000 129.10000610 393.85839081 -476.84183884 -119.80146027 2 -2 -1 
253 6 2 1.00000000 128.19999695 395.30297852 -473.82122421 -117.48015594 2 -2 -1 
254 6 2 1.00000000 128.19999695 399.08907509 -474.62136078 -118.52067566 2 -2 -1 
255 6 2 1.00000000 128.19999695 402.37804317 -473.34235382 -119.53070068 2 -2 -1 
256 6 1 -1.00000000 129.10000610 405.03144550 -476.12557983 -120.17372131 2 -2 -1 
257 6 2 1.00000000 128.19999695 405.44299507 -478.40426636 -123.12850189 2 -2 -1 
258 6 1 -1.00000000 129.10000610 403.17675209 -477.14995575 -125.88746643 2 -2 -1 
259 6 1 -1.00000000 129.10000610 404.81947708 -473.71134567 -126.53962708 2 -2 -1 
260 6 1 -1.00000000 129.10000610 408.07035065 -472.88174057 -124.87774658 2 -2 -1 
261 6 2 1.00000000 128.19999695 411.33811784 -475.12060928 -124.66221619 2 -2 -1 
262 6 1 -1.00000000 129.10000610 414.43301919 -476.99269867 -125.81220245 2 -2 -1 
263 6 1 -1.00000000 129.10000610 417.70495796 -475.80673599 -123.82056427 2 -2 -1 
264 6 1 -1.00000000 129.10000610 419.67247391 -472.32457352 -123.59595490 2 -2 -1 
265 6 2 1.00000000 128.19999695 421.28658533 -469.29209518 -125.15139008 2 -2 -1 
266 6 2 1.00000000 128.19999695 423.52464008 -469.67807388 -128.56664276 2 -2 -1 
267 6 1 -1.00000000 129.10000610 426.22529316 -466.58683014 -129.39613342 2 -2 -1 
268 6 1 -1.00000000 129.10000610 429.22185040 -464.93541336 -128.38024139 2 -2 -1 
269 6 2 1.00000000 128.19999695 429.12443066 -464.89655304 -124.64939880 2 -2 -1 
270 6 1 -1.00000000 129.10000610 428.57301617 -467.11138535 -121.83917236 2 -2 -1 
271 6 1 -1.00000000 129.10000610 425.88509464 -469.41376877 -120.47389221 2 -2 -1 
272 6 1 -1.00000000 129.10000610 426.07337761 -468.99954605 -116.67183685 2 -2 -1 
273 6 2 1.00000000 128.19999695 422.89161777 -467.71520233 -115.09487915 2 -2 -1 
274 6 1 -1.00000000 129.10000610 422.59078646 -463.57464218 -114.99538422 2 -2 -1 
275 6 1 -1.00000000 129.10000610 425.71485519 -463.29125214 -112.89321136 2 -2 -1 
276 6 2 1.00000000 128.19999695 428.52673912 -462.93935013 -115.76799011 2 -2 -1 
277 6 2 1.00000000 128.19999695 427.85495853 -459.89139557 -118.22743225 2 -2 -1 
278 6 2 1.00000000 128.19999695 424.91335297 -460.44729614 -120.47956085 2 -2 -1 
279 6 2 1.00000000 128.19999695 422.69686127 -462.91616058 -121.99276733 2 -2 -1 
280 6 2 1.00000000 128.19999695 419.84154081 -461.96455002 -124.53354645 2 -2 -1 
281 6 1 -1.00000000 129.10000610 416.27524436 -460.73086929 -124.27351379 2 -2 -1 
282 6 1 -1.00000000 129.10000610 414.29346070 -463.94603729 -124.17784882 2 -2 -1 
283 6 1 -1.00000000 129.10000610 411.29969382 -464.93566513 -122.13353729 2 -2 -1 
284 6 2 1.00000000 128.19999695 408.14759350 -462.94139481 -122.27494812 2 -2 -1 
285 6 2 1.00000000 128.19999695 404.71740818 -463.86188889 -120.35335541 2 -2 -1 
286 6 2 1.00000000 128.19999695 404.64530945 -462.42543411 -116.73615265 2 -2 -1 
287 6 1 -1.00000000 129.10000610 404.78868771 -465.37029266 -114.51681519 2 -2 -1 
288 6 2 1.00000000 128.19999695 404.29344177 -467.37662888 -111.04452515 2 -2 -1 
289 6 1 -1.00000000 129.10000610 407.49235535 -469.76995468 -110.05343628 2 -2 -1 
290 6 1 -1.00000000 129.10000610 409.77787685 -470.05726624 -107.07156372 2 -2 -1 
291 6 1 -1.00000000 129.10000610 412.13837266 -472.21633911 -105.22507477 2 -2 -1 
292 6 2 1.00000000 128.19999695 412.77923000 -472.54166031 -101.48356628 2 -2 0 
293 6 1 -1.00000000 129.10000610 410.12189150 -474.40293503 -99.42280579 2 -2 0 
294 6 2 1.00000000 128.19999695 410.88192701 -477.11694336 -97.58901978 2 -2 0 
295 6 2 1.00000000 128.19999695 412.47773409 -476.84562683 -94.12535095 2 -2 0 
296 6 2 1.00000000 128.19999695 414.65027391 -473.97415543 -92.50619507 2 -2 0 
297 6 1 -1.00000000 129.10000610 416.78089261 -472.49137115 -89.36482239 2 -2 0 
298 6 2 1.00000000 128.19999695 416.60979319 -472.54449844 -85.84240723 2 -2 0 
299 6 1 -1.00000000 129.10000610 417.91417027 -474.98383713 -82.72901917 2 -2 0 
300 6 2 1.00000000 128.19999695 417.47537613 -474.61695862 -78.98484802 2 -2 0 
301 7 2 1.00000000 128.19999695 12.67825508 4.39321995 -805.47165680 0 0 -4 
302 7 1 -1.00000000 129.10000610 9.23700905 3.64003325 -806.75669861 0 0 -4 
303 7 2 1.00000000 128.19999695 7.13173437 5.03013420 -809.26586723 0 0 -4 
304 7 2 1.00000000 128.19999695 4.91635513 8.14439106 -810.35405159 0 0 -4 
305 7 2 1.00000000 128.19999695 1.45161235 8.38757515 -810.92814827 0 0 -4 
306 7 1 -1.00000000 129.10000610 -0.02513535 11.49088573 -812.05883980 0 0 -4 
307 7 2 1.00000000 128.19999695 -0.92356104 14.78555298 -813.77112007 0 0 -4 
308 7 1 -1.00000000 129.10000610 2.37170601 14.96300030 -815.88498306 0 0 -4 
309 7 1 -1.00000000 129.10000610 4.70466089 12.37961960 -816.74907017 0 0 -4 
310 7 1 -1.00000000 129.10000610 3.85875726 9.32227898 -817.97974300 0 0 -4 
311 7 2 1.00000000 128.19999695 1.00876153 8.96876240 -820.70259094 0 0 -4 
312 7 1 -1.00000000 129.10000610 -1.83524847 6.95339966 -819.10220146 0 0 -4 
313 7 1 -1.00000000 129.10000610 -3.55165482 3.51722789 -817.90211678 0 0 -4 
314 7 1 -1.00000000 129.10000610 -4.91534710 1.30845797 -815.06001186 0 0 -4 
315 7 2 1.00000000 128.19999695 -4.14961147 2.39461946 -811.40503693 0 0 -4 
316 7 2 1.00000000 128.19999695 -4.49023771 2.16971588 -807.72004318 0 0 -4 
317 7 1 -1.00000000 129.10000610 -2.34419775 4.95150709 -806.01623726 0 0 -4 
318 7 1 -1.00000000 129.10000610 0.06903300 7.56793022 -805.03457260 0 0 -4 
319 7 2 1.00000000 128.19999695 0.10772238 11.22707176 -803.55403900 0 0 -4 
320 7 1 -1.00000000 129.10000610 -3.44190979 11.37844372 -802.48512840 0 0 -4 
321 7 1 -1.00000000 129.10000610 -6.12068367 9.42982578 -804.07394028 0 0 -4 
322 7 1 -1.00000000 129.10000610 -8.84994125 7.63493204 -805.85226822 0 0 -4 
323 7 2 1.00000000 128.19999695 -10.43102741 6.35265970 -808.98695755 0 0 -4 
324 7 1 -1.00000000 129.10000610 -9.95016384 5.29967546 -812.73953056 0 0 -4 
325 7 1 -1.00000000 129.10000610 -12.86970043 5.85952711 -814.87458229 0 0 -4 
326 7 2 1.00000000 128.19999695 -11.25598717 6.49776554 -818.38145065 0 0 -4 
327 7 2 1.00000000 128.19999695 -12.23915386 3.62407970 -820.93781281 0 0 -4 
328 7 2 1.00000000 128.19999695 -15.19011593 3.37762737 -823.05710316 0 0 -4 
329 7 2 1.00000000 128.19999695 -18.93965149 2.81252885 -821.95227194 0 0 -4 
330 7 2 1.00000000 128.19999695 -21.72516441 0.07958003 -822.57925463 0 0 -4 
331 7 1 -1.00000000 129.10000610 -24.69168663 1.92213440 -824.42291784 0 0 -4 
332 7 1 -1.00000000 129.10000610 -26.34707069 3.93577480 -827.15736365 0 0 -4 
333 7 1 -1.00000000 129.10000610 -29.54732132 5.41397762 -827.58177567 0 0 -4 
334 7 2 1.00000000 128.19999695 -32.79805756 5.65339804 -828.94189262 0 0 -4 
335 7 2 1.00000000 128.19999695 -34.30618286 1.88969219 -828.53584820 0 0 -4 
336 7 2 1.00000000 128.19999695 -36.37014389 -1.33597183 -828.91657370 0 0 -4 
337 7 1 -1.00000000 129.10000610 -39.70074081 -3.27864647 -828.90018862 0 0 -4 
338 7 2 1.00000000 128.19999695 -39.58874512 -6.96294260 -827.65032923 0 0 -4 
339 7 1 -1.00000000 129.10000610 -37.62477875 -9.56579781 -825.09792900 0 0 -4 
340 7 1 -1.00000000 129.10000610 -37.20185089 -6.72445965 -822.49713993 0 0 -4 
341 7 1 -1.00000000 129.10000610 -36.32958221 -3.33363867 -821.94017887 0 0 -4 
342 7 2 1.00000000 128.19999695 -37.51875305 0.46292225 -822.52760220 0 0 -4 
343 7 1 -1.00000000 129.10000610 -40.78533936 1.40368485 -820.84683800 0 0 -4 
344 7 2 1.00000000 128.19999695 -42.58016205 -1.81108367 -819.47413731 0 0 -4 
345 7 2 1.00000000 128.19999695 -43.63010788 -1.72614062 -815.86511040 0 0 -4 
346 7 2 1.00000000 128.19999695 -46.46942520 -3.20507908 -814.60149574 0 0 -4 
347 7 1 -1.00000000 129.10000610 -46.77025604 -6.85242462 -814.24560642 0 0 -4 
348 7 2 1.00000000 128.19999695 -47.55083084 -10.00505066 -813.89940453 0 0 -4 
349 7 1 -1.00000000 129.10000610 -48.87873077 -13.56940460 -812.94460487 0 0 -4 
350 7 2 1.00000000 128.19999695 -49.04751587 -17.27371407 -813.92000294 0 0 -4 
351 8 2 1.00000000 128.19999695 61.47289658 -117.69317627 605.67932510 0 -1 3 
352 8 1 -1.00000000 129.10000610 60.35968399 -117.39089203 609.14708233 0 -1 3 
353 8 2 1.00000000 128.19999695 60.92549133 -115.55027771 612.35031891 0 -1 3 
354 8 2 1.00000000 128.19999695 58.54197311 -112.68106079 612.78290558 0 -1 3 
355 8 2 1.00000000 128.19999695 59.50135803 -109.29045105 611.91973019 0 -1 3 
356 8 1 -1.00000000 129.10000610 58.40134811 -108.27782440 608.37988949 0 -1 3 
357 8 2 1.00000000 128.19999695 59.07144165 -111.44332886 605.86049080 0 -1 3 
358 8 1 -1.00000000 129.10000610 59.51179123 -109.71865082 602.11169624 0 -1 3 
359 8 1 -1.00000000 129.10000610 62.27856064 -106.76341248 600.70337105 0 -1 3 
360 8 1 -1.00000000 129.10000610 65.59423065 -108.77980804 600.49135971 0 -1 3 
361 8 2 1.00000000 128.19999695 67.93441772 -107.40475464 603.32176208 0 -1 3 
362 8 1 -1.00000000 129.10000610 68.11203766 -107.32960510 607.80099869 0 -1 3 
363 8 1 -1.00000000 129.10000610 68.75456238 -107.24626160 611.66570377 0 -1 3 
364 8 1 -1.00000000 129.10000610 65.97521973 -106.38114166 613.92446709 0 -1 3 
365 8 2 1.00000000 128.19999695 63.47665405 -103.66755676 614.66493988 0 0 3 
366 8 2 1.00000000 128.19999695 62.80411911 -103.14360809 618.40181947 0 0 3 
367 8 1 -1.00000000 129.10000610 64.77295685 -100.66880798 620.74010479 0 0 3 
368 8 1 -1.00000000 129.10000610 62.79264450 -97.89981842 622.16877022 0 0 3 
369 8 2 1.00000000 128.19999695 64.61422729 -95.58252716 624.96455717 0 0 3 