ITEM: TIMESTEP
43800000 
ITEM: NUMBER OF ATOMS 
25000 
ITEM: BOX BOUNDS pp pp pp 
-103.678017 103.678017 
-103.678017 103.678017 
-103.678017 103.678017 
ITEM: ATOMS id mol type q mass xu yu zu ix iy iz 
1 1 2 1.00000000 128.19999695 511.02367401 -191.48890495 -325.87187958 2 -1 -2 
2 1 1 -1.00000000 129.10000610 511.87998962 -193.22363377 -322.55993652 2 -1 -2 
3 1 2 1.00000000 128.19999695 513.03587341 -193.57127571 -319.02087402 2 -1 -2 
4 1 2 1.00000000 128.19999695 515.06683350 -195.27811718 -316.26690674 2 -1 -2 
5 1 2 1.00000000 128.19999695 517.29074860 -194.10448170 -313.19418335 2 -1 -2 
6 1 1 -1.00000000 129.10000610 520.83138275 -194.56708813 -315.12886047 3 -1 -2 
7 1 2 1.00000000 128.19999695 523.51647949 -193.10172939 -312.46741486 3 -1 -2 
8 1 1 -1.00000000 129.10000610 526.97660828 -193.17076683 -313.87310791 3 -1 -2 
9 1 1 -1.00000000 129.10000610 530.66275024 -191.86108971 -312.55497742 3 -1 -2 
10 1 1 -1.00000000 129.10000610 530.87638092 -190.30511665 -309.31955719 3 -1 -1 
11 1 2 1.00000000 128.19999695 530.47610474 -192.03093052 -305.95322418 3 -1 -1 
12 1 1 -1.00000000 129.10000610 526.75971985 -193.05938625 -305.34806824 3 -1 -1 
13 1 1 -1.00000000 129.10000610 524.74238586 -190.72262192 -303.33610535 3 -1 -1 
14 1 1 -1.00000000 129.10000610 524.18017578 -187.64003944 -301.05799866 3 -1 -1 
15 1 2 1.00000000 128.19999695 527.45307922 -185.33498955 -300.99232483 3 -1 -1 
16 1 2 1.00000000 128.19999695 526.36092377 -182.58209991 -299.29918671 3 -1 -1 
17 1 1 -1.00000000 129.10000610 522.75115967 -180.93704605 -298.86894989 3 -1 -1 
18 1 1 -1.00000000 129.10000610 521.25283813 -177.16693306 -298.15732574 3 -1 -1 
19 1 2 1.00000000 128.19999695 518.56224060 -176.16387367 -300.23484802 3 -1 -1 
20 1 1 -1.00000000 129.10000610 515.09996033 -177.08513260 -301.75513458 2 -1 -1 
21 1 1 -1.00000000 129.10000610 513.87343597 -180.44416618 -300.24703979 2 -1 -1 
22 1 1 -1.00000000 129.10000610 513.03385925 -180.54465294 -296.61765289 2 -1 -1 
23 1 2 1.00000000 128.19999695 513.84352875 -178.28089905 -293.68418884 2 -1 -1 
24 1 1 -1.00000000 129.10000610 515.02746582 -178.55272675 -290.49098969 2 -1 -1 
25 1 1 -1.00000000 129.10000610 512.16537476 -178.59196281 -287.67741394 2 -1 -1 
26 1 2 1.00000000 128.19999695 509.90808868 -177.14289284 -284.82544708 2 -1 -1 
27 1 2 1.00000000 128.19999695 506.79232025 -178.94574165 -284.42528534 2 -1 -1 
28 1 2 1.00000000 128.19999695 504.81120300 -181.32943344 -282.46853638 2 -1 -1 
29 1 2 1.00000000 128.19999695 506.23281097 -183.07963181 -279.64338684 2 -1 -1 
30 1 2 1.00000000 128.19999695 510.00396729 -184.11574745 -278.60871887 2 -1 -1 
31 1 1 -1.00000000 129.10000610 513.21371460 -182.17293930 -278.65085602 2 -1 -1 
32 1 1 -1.00000000 129.10000610 512.31970978 -178.54075813 -277.40320587 2 -1 -1 
33 1 1 -1.00000000 129.10000610 515.27927399 -176.26864624 -277.33485413 2 -1 -1 
34 1 2 1.00000000 128.19999695 514.82266235 -174.06468201 -274.08163452 2 -1 -1 
35 1 2 1.00000000 128.19999695 513.60461426 -170.25197220 -274.63362122 2 -1 -1 
36 1 2 1.00000000 128.19999695 514.76861572 -168.11341095 -277.32625580 2 -1 -1 
37 1 1 -1.00000000 129.10000610 514.77359772 -165.12791824 -275.40548706 2 -1 -1 
38 1 2 1.00000000 128.19999695 518.11439514 -163.00926971 -274.86773682 2 -1 -1 
39 1 1 -1.00000000 129.10000610 520.69751740 -164.74520493 -277.10365295 3 -1 -1 
40 1 1 -1.00000000 129.10000610 523.33762360 -163.47293854 -279.58926392 3 -1 -1 
41 1 1 -1.00000000 129.10000610 521.61115265 -164.22879791 -283.05718231 3 -1 -1 
42 1 2 1.00000000 128.19999695 519.65444183 -161.73198700 -285.16635895 3 -1 -1 
43 1 1 -1.00000000 129.10000610 517.29372406 -159.07310104 -284.62557983 2 -1 -1 
44 1 2 1.00000000 128.19999695 514.90094757 -156.56015396 -286.60408020 2 -1 -1 
45 1 2 1.00000000 128.19999695 514.88787842 -154.29238129 -289.65660858 2 -1 -1 
46 1 2 1.00000000 128.19999695 517.56468964 -151.65639877 -291.46038055 2 -1 -1 
47 1 1 -1.00000000 129.10000610 517.27455139 -147.74069214 -292.02780151 2 -1 -1 
48 1 2 1.00000000 128.19999695 519.66805267 -146.32758331 -294.25215149 3 -1 -1 
49 1 1 -1.00000000 129.10000610 519.28491211 -147.86140442 -297.50086212 3 -1 -1 
50 1 2 1.00000000 128.19999695 517.60756683 -149.15463257 -300.65454102 2 -1 -1 
51 2 2 1.00000000 128.19999695 548.08221436 356.50968933 -334.90104675 3 2 -2 
52 2 1 -1.00000000 129.10000610 546.79384613 355.70409393 -331.20552063 3 2 -2 
53 2 2 1.00000000 128.19999695 545.87467957 352.36503220 -328.77838135 3 2 -2 
54 2 2 1.00000000 128.19999695 542.72142029 353.58314514 -326.77156067 3 2 -2 
55 2 2 1.00000000 128.19999695 540.72473907 351.38547516 -324.23141479 3 2 -2 
56 2 1 -1.00000000 129.10000610 538.77716064 353.89047623 -322.03276062 3 2 -2 
57 2 2 1.00000000 128.19999695 540.51036072 357.35498810 -321.55941010 3 2 -2 
58 2 1 -1.00000000 129.10000610 543.52674103 358.08258057 -319.70866394 3 2 -2 
59 2 1 -1.00000000 129.10000610 545.31427002 360.94651413 -321.31722260 3 2 -2 
60 2 1 -1.00000000 129.10000610 544.61228943 363.46467209 -324.06518555 3 2 -2 
61 2 2 1.00000000 128.19999695 541.71858215 365.52540588 -322.28305817 3 2 -2 
62 2 1 -1.00000000 129.10000610 538.55468750 363.12755585 -322.37484741 3 2 -2 
63 2 1 -1.00000000 129.10000610 536.66511536 361.41456985 -319.75935364 3 2 -2 
64 2 1 -1.00000000 129.10000610 535.76817322 358.48894501 -317.18772888 3 2 -2 
65 2 2 1.00000000 128.19999695 532.32278442 356.90798569 -316.12531281 3 2 -2 
66 2 2 1.00000000 128.19999695 528.66130066 355.51430893 -314.66178131 3 2 -2 
67 2 1 -1.00000000 129.10000610 525.10585785 354.65180206 -314.09409332 3 2 -2 
68 2 1 -1.00000000 129.10000610 521.40029144 353.44097519 -313.93168640 3 2 -2 
69 2 2 1.00000000 128.19999695 521.52431488 349.74365997 -312.67078400 3 2 -2 
70 2 1 -1.00000000 129.10000610 524.46578979 347.05863953 -313.45521545 3 2 -2 
71 2 1 -1.00000000 129.10000610 527.68707275 347.16616058 -315.07762146 3 2 -2 
72 2 1 -1.00000000 129.10000610 531.26478577 346.39414978 -314.94123840 3 2 -2 
73 2 2 1.00000000 128.19999695 533.83564758 348.97984314 -315.10130310 3 2 -2 
74 2 1 -1.00000000 129.10000610 536.70548248 348.57498169 -312.71602631 3 2 -2 
75 2 1 -1.00000000 129.10000610 540.24642944 346.86125946 -313.12873077 3 2 -2 
76 2 2 1.00000000 128.19999695 543.87580109 346.44162750 -314.65414429 3 2 -2 
77 2 2 1.00000000 128.19999695 547.34475708 346.86733246 -314.00251770 3 2 -2 
78 2 2 1.00000000 128.19999695 549.20775604 348.94673157 -311.64048767 3 2 -2 
79 2 2 1.00000000 128.19999695 552.08099365 348.90190125 -308.96847534 3 2 -1 
80 2 2 1.00000000 128.19999695 555.05815887 351.09610367 -308.44547272 3 2 -1 
81 2 1 -1.00000000 129.10000610 554.00437927 354.66716766 -309.34951019 3 2 -1 
82 2 1 -1.00000000 129.10000610 550.77877045 356.79828644 -308.15254974 3 2 -1 
83 2 1 -1.00000000 129.10000610 548.51601410 359.72203064 -309.15193176 3 2 -1 
84 2 2 1.00000000 128.19999695 548.14910126 362.52093124 -311.63004303 3 2 -2 
85 2 2 1.00000000 128.19999695 544.61850739 363.18970490 -313.18524170 3 2 -2 
86 2 2 1.00000000 128.19999695 542.99082947 359.71090698 -313.75251007 3 2 -2 
87 2 1 -1.00000000 129.10000610 545.92080688 357.34420013 -314.54717255 3 2 -2 
88 2 2 1.00000000 128.19999695 549.18226624 356.65610886 -316.44763947 3 2 -2 
89 2 1 -1.00000000 129.10000610 551.26216125 359.55234146 -315.95011139 3 2 -2 
90 2 1 -1.00000000 129.10000610 554.56461334 358.88196564 -317.95356750 3 2 -2 
91 2 1 -1.00000000 129.10000610 558.34185791 357.69280243 -317.19858551 3 2 -2 
92 2 2 1.00000000 128.19999695 559.81626129 359.50999069 -314.23423767 3 2 -2 
93 2 1 -1.00000000 129.10000610 561.87619781 361.70010757 -316.48843384 3 2 -2 
94 2 2 1.00000000 128.19999695 564.12189865 360.37257767 -319.00061798 3 2 -2 
95 2 2 1.00000000 128.19999695 564.46891022 358.42114639 -321.79483795 3 2 -2 
96 2 2 1.00000000 128.19999695 566.88513565 357.37899399 -324.59883118 3 2 -2 
97 2 1 -1.00000000 129.10000610 569.95112610 359.48367310 -324.88402557 3 2 -2 
98 2 2 1.00000000 128.19999695 572.85476685 359.68211365 -327.45818329 3 2 -2 
99 2 1 -1.00000000 129.10000610 576.31426620 360.93401718 -326.21645355 3 2 -2 
100 2 2 1.00000000 128.19999695 578.58200455 363.43505478 -323.65291595 3 2 -2 
101 3 2 1.00000000 128.19999695 345.77118683 -108.10536957 21.25415802 2 -1 0 
102 3 1 -1.00000000 129.10000610 349.06153107 -109.34682465 22.70511436 2 -1 0 
103 3 2 1.00000000 128.19999695 349.12503052 -110.65757751 25.97228241 2 -1 0 
104 3 2 1.00000000 128.19999695 348.62911987 -109.22930908 29.45606613 2 -1 0 
105 3 2 1.00000000 128.19999695 350.39031219 -111.83596802 31.82555199 2 -1 0 
106 3 1 -1.00000000 129.10000610 350.64538574 -112.43621826 35.37476349 2 -1 0 
107 3 2 1.00000000 128.19999695 352.15159988 -112.77967072 38.69253922 2 -1 0 
108 3 1 -1.00000000 129.10000610 354.86064148 -111.90903473 41.69555283 2 -1 0 
109 3 1 -1.00000000 129.10000610 356.88100815 -111.09379578 45.04475403 2 -1 0 
110 3 1 -1.00000000 129.10000610 355.86510468 -113.09501648 48.04237366 2 -1 0 
111 3 2 1.00000000 128.19999695 355.66759872 -115.94147491 51.00836182 2 -1 0 
112 3 1 -1.00000000 129.10000610 356.47819138 -119.21969604 52.64645386 2 -1 0 
113 3 1 -1.00000000 129.10000610 353.08825684 -120.88922882 53.38470078 2 -1 0 
114 3 1 -1.00000000 129.10000610 352.77254868 -124.55497742 54.03047943 2 -1 0 
115 3 2 1.00000000 128.19999695 353.08318329 -126.33374786 50.70064163 2 -1 0 
116 3 2 1.00000000 128.19999695 351.35274124 -124.88943481 47.64116287 2 -1 0 
117 3 1 -1.00000000 129.10000610 348.61649323 -126.31841278 45.02970123 2 -1 0 
118 3 1 -1.00000000 129.10000610 346.62026978 -124.32003784 42.34745789 2 -1 0 
119 3 2 1.00000000 128.19999695 343.67149353 -121.99443817 42.15753937 2 -1 0 
120 3 1 -1.00000000 129.10000610 340.64138031 -119.34339905 41.80286789 2 -1 0 
121 3 1 -1.00000000 129.10000610 337.98477936 -118.10747528 44.09698486 2 -1 0 
122 3 1 -1.00000000 129.10000610 338.44565582 -114.43957520 43.72710037 2 -1 0 
123 3 2 1.00000000 128.19999695 340.99353790 -112.14546967 45.44015884 2 -1 0 
124 3 1 -1.00000000 129.10000610 343.61844635 -113.61363983 47.79187775 2 -1 0 
125 3 1 -1.00000000 129.10000610 347.40490723 -113.50170898 48.77065277 2 -1 0 
126 3 2 1.00000000 128.19999695 348.82347870 -116.46950531 46.51782227 2 -1 0 
127 3 2 1.00000000 128.19999695 351.86569214 -118.24107361 44.96564484 2 -1 0 
128 3 2 1.00000000 128.19999695 354.72169113 -118.26023865 42.58616257 2 -1 0 
129 3 2 1.00000000 128.19999695 358.42101288 -117.47200012 43.24690628 2 -1 0 
130 3 2 1.00000000 128.19999695 360.44979858 -115.08448792 41.68615341 2 -1 0 
131 3 1 -1.00000000 129.10000610 363.97005081 -114.79959869 40.76850891 2 -1 0 
132 3 1 -1.00000000 129.10000610 367.45155334 -116.29039001 42.56544113 2 -1 0 
133 3 1 -1.00000000 129.10000610 368.89940262 -119.47017670 43.58399200 2 -1 0 
134 3 2 1.00000000 128.19999695 370.67775726 -120.67596436 46.59413910 2 -1 0 
135 3 2 1.00000000 128.19999695 373.53141785 -118.97617340 47.76731491 2 -1 0 
136 3 2 1.00000000 128.19999695 372.83886337 -115.25974274 48.16526413 2 -1 0 
137 3 1 -1.00000000 129.10000610 373.54849625 -113.58665466 51.69008636 2 -1 0 
138 3 2 1.00000000 128.19999695 373.87590790 -109.70167542 51.26686096 2 -1 0 
139 3 1 -1.00000000 129.10000610 376.68638611 -108.18257141 49.05905914 2 -1 0 
140 3 1 -1.00000000 129.10000610 378.04793549 -111.07684326 46.99360657 2 -1 0 
141 3 1 -1.00000000 129.10000610 379.29798889 -113.03953552 43.78247833 2 -1 0 
142 3 2 1.00000000 128.19999695 378.64503098 -115.58158112 40.80756378 2 -1 0 
143 3 1 -1.00000000 129.10000610 374.60609818 -115.95523071 41.72826004 2 -1 0 
144 3 2 1.00000000 128.19999695 373.05251312 -112.16515350 41.52158356 2 -1 0 
145 3 2 1.00000000 128.19999695 375.17322540 -109.10823059 42.53641129 2 -1 0 
146 3 2 1.00000000 128.19999695 375.42743683 -105.22476959 42.03111649 2 -1 0 
147 3 1 -1.00000000 129.10000610 374.22594452 -102.54167175 39.36344147 2 0 0 
148 3 2 1.00000000 128.19999695 374.50715637 -99.39795685 41.48118210 2 0 0 
149 3 1 -1.00000000 129.10000610 376.36898422 -96.41357422 42.92450333 2 0 0 
150 3 2 1.00000000 128.19999695 375.33928299 -93.25457764 43.71482849 2 0 0 
151 4 2 1.00000000 128.19999695 -340.17004395 387.58284950 18.22909546 -2 2 0 
152 4 1 -1.00000000 129.10000610 -339.35614014 389.36324120 21.01225471 -2 2 0 
153 4 2 1.00000000 128.19999695 -336.65412903 390.95448685 23.27954483 -2 2 0 
154 4 2 1.00000000 128.19999695 -333.45411682 393.22241974 23.65105438 -2 2 0 
155 4 2 1.00000000 128.19999695 -332.01779938 396.49414825 25.39520073 -2 2 0 
156 4 1 -1.00000000 129.10000610 -328.52656555 396.61678314 23.67120552 -2 2 0 
157 4 2 1.00000000 128.19999695 -326.36084747 398.92149639 21.28754044 -2 2 0 
158 4 1 -1.00000000 129.10000610 -327.67600250 402.33301353 19.54277992 -2 2 0 
159 4 1 -1.00000000 129.10000610 -331.18556976 403.59003639 18.86469460 -2 2 0 
160 4 1 -1.00000000 129.10000610 -334.48800659 404.75417805 19.81462479 -2 2 0 
161 4 2 1.00000000 128.19999695 -337.61370087 403.50374031 21.08764839 -2 2 0 
162 4 1 -1.00000000 129.10000610 -338.24417114 401.71605968 24.39473724 -2 2 0 
163 4 1 -1.00000000 129.10000610 -340.65408325 398.95141220 23.09691238 -2 2 0 
164 4 1 -1.00000000 129.10000610 -344.14532471 397.74940681 23.59359932 -2 2 0 
165 4 2 1.00000000 128.19999695 -346.74722290 399.92327595 25.56126595 -2 2 0 
166 4 2 1.00000000 128.19999695 -344.31147003 400.62990952 28.42713356 -2 2 0 
167 4 1 -1.00000000 129.10000610 -342.74741364 404.05872536 28.33529663 -2 2 0 
168 4 1 -1.00000000 129.10000610 -344.31088257 406.51061058 25.83062935 -2 2 0 
169 4 2 1.00000000 128.19999695 -343.89073944 408.03243446 22.27947807 -2 2 0 
170 4 1 -1.00000000 129.10000610 -340.55037689 409.24769068 21.35664940 -2 2 0 
171 4 1 -1.00000000 129.10000610 -338.05876923 411.39993644 23.46575928 -2 2 0 
172 4 1 -1.00000000 129.10000610 -339.07818604 415.08399728 22.62940598 -2 2 0 
173 4 2 1.00000000 128.19999695 -340.41409302 414.98101410 19.06319046 -2 2 0 
174 4 1 -1.00000000 129.10000610 -339.12812805 416.21151137 15.74678326 -2 2 0 
175 4 1 -1.00000000 129.10000610 -338.81634521 417.87962198 12.24088669 -2 2 0 
176 4 2 1.00000000 128.19999695 -335.97576141 419.58673048 10.52450752 -2 2 0 
177 4 2 1.00000000 128.19999695 -332.54943085 418.74122906 11.88751316 -2 2 0 
178 4 2 1.00000000 128.19999695 -329.66628265 421.20924997 11.56705284 -2 2 0 
179 4 2 1.00000000 128.19999695 -330.42457581 424.21808338 9.56520081 -2 2 0 
180 4 2 1.00000000 128.19999695 -333.70318604 426.15304089 10.28334904 -2 2 0 
181 4 1 -1.00000000 129.10000610 -335.76976776 426.36656284 13.63857460 -2 2 0 
182 4 1 -1.00000000 129.10000610 -335.48877716 423.29706955 15.85118008 -2 2 0 
183 4 1 -1.00000000 129.10000610 -338.34001160 423.50474834 18.43765259 -2 2 0 
184 4 2 1.00000000 128.19999695 -341.38936615 425.27608204 16.58694839 -2 2 0 
185 4 2 1.00000000 128.19999695 -343.89445496 427.18802071 18.67512131 -2 2 0 
186 4 2 1.00000000 128.19999695 -341.93958282 430.52724648 20.19169235 -2 2 0 
187 4 1 -1.00000000 129.10000610 -340.32307434 433.66896820 19.86025238 -2 2 0 
188 4 2 1.00000000 128.19999695 -341.31057739 437.41591072 20.06594658 -2 2 0 
189 4 1 -1.00000000 129.10000610 -343.88522339 438.17722130 23.36259079 -2 2 0 
190 4 1 -1.00000000 129.10000610 -345.08662415 437.62427711 26.86451912 -2 2 0 
191 4 1 -1.00000000 129.10000610 -347.26866150 440.94197083 26.98636246 -2 2 0 
192 4 2 1.00000000 128.19999695 -346.20231628 443.13891602 30.18236542 -2 2 0 
193 4 1 -1.00000000 129.10000610 -344.06436920 442.74768448 33.23916245 -2 2 0 
194 4 2 1.00000000 128.19999695 -343.35295868 438.98717117 33.97701645 -2 2 0 
195 4 2 1.00000000 128.19999695 -344.60124207 437.20730591 36.98272324 -2 2 0 
196 4 2 1.00000000 128.19999695 -347.92514038 435.58574867 37.85818100 -2 2 0 
197 4 1 -1.00000000 129.10000610 -350.61528015 432.69107056 37.49939728 -2 2 0 
198 4 2 1.00000000 128.19999695 -352.48177338 431.85814285 40.47782516 -2 2 0 
199 4 1 -1.00000000 129.10000610 -355.07721329 429.95906544 42.58150101 -2 2 0 
200 4 2 1.00000000 128.19999695 -357.20038986 427.14229774 43.91147614 -2 2 0 
201 5 2 1.00000000 128.19999695 -325.65209198 -237.02127647 -229.75481224 -2 -1 -1 
202 5 1 -1.00000000 129.10000610 -323.30653381 -234.65719986 -230.54039192 -2 -1 -1 
203 5 2 1.00000000 128.19999695 -323.95430756 -232.50187492 -234.02647018 -2 -1 -1 
204 5 2 1.00000000 128.19999695 -325.07615662 -230.27745628 -236.83505058 -2 -1 -1 
205 5 2 1.00000000 128.19999695 -324.66983032 -231.48608589 -240.64780807 -2 -1 -1 
206 5 1 -1.00000000 129.10000610 -323.25002289 -234.71015930 -242.33695221 -2 -1 -1 
207 5 2 1.00000000 128.19999695 -319.43773651 -233.78090668 -243.04563904 -2 -1 -1 
208 5 1 -1.00000000 129.10000610 -319.00650024 -230.51078987 -241.25255585 -2 -1 -1 
209 5 1 -1.00000000 129.10000610 -318.48702240 -227.80470085 -238.35090256 -2 -1 -1 
210 5 1 -1.00000000 129.10000610 -315.68876648 -226.18255997 -240.10009384 -2 -1 -1 
211 5 2 1.00000000 128.19999695 -312.70633698 -226.72229958 -242.29210281 -2 -1 -1 
212 5 1 -1.00000000 129.10000610 -311.97916412 -228.83062172 -245.60490036 -2 -1 -1 
213 5 1 -1.00000000 129.10000610 -313.59152985 -231.78693008 -247.70163345 -2 -1 -1 
214 5 1 -1.00000000 129.10000610 -313.56083679 -230.63657570 -251.58835220 -2 -1 -1 
215 5 2 1.00000000 128.19999695 -317.30451202 -229.14778709 -252.31642151 -2 -1 -1 
216 5 2 1.00000000 128.19999695 -319.84240723 -230.34595490 -249.81007385 -2 -1 -1 
217 5 1 -1.00000000 129.10000610 -322.39524841 -232.60099030 -250.97150421 -2 -1 -1 
218 5 1 -1.00000000 129.10000610 -324.57305145 -235.05237389 -252.89734650 -2 -1 -1 
219 5 2 1.00000000 128.19999695 -326.98720551 -237.74740219 -253.41899490 -2 -1 -1 
220 5 1 -1.00000000 129.10000610 -326.95503998 -239.96478271 -256.63377762 -2 -1 -1 
221 5 1 -1.00000000 129.10000610 -327.69646454 -243.38310623 -255.21079254 -2 -1 -1 
222 5 1 -1.00000000 129.10000610 -327.77103424 -246.84723663 -256.79117584 -2 -1 -1 
223 5 2 1.00000000 128.19999695 -328.89928436 -246.76147842 -260.52935791 -2 -1 -1 
224 5 1 -1.00000000 129.10000610 -327.36408234 -249.22319794 -263.19187546 -2 -1 -1 
225 5 1 -1.00000000 129.10000610 -326.48779297 -249.66915894 -266.61963272 -2 -1 -1 
226 5 2 1.00000000 128.19999695 -323.62802887 -247.67464447 -268.38297272 -2 -1 -1 
227 5 2 1.00000000 128.19999695 -321.54280853 -244.72830963 -269.13475800 -2 -1 -1 
228 5 2 1.00000000 128.19999695 -318.62070465 -242.68672562 -270.95199203 -2 -1 -1 
229 5 2 1.00000000 128.19999695 -315.14307404 -240.33478165 -270.24523544 -2 -1 -1 
230 5 2 1.00000000 128.19999695 -312.59522247 -239.30987549 -272.68847656 -2 -1 -1 
231 5 1 -1.00000000 129.10000610 -310.31183624 -241.33333969 -275.04808807 -1 -1 -1 
232 5 1 -1.00000000 129.10000610 -307.69026184 -242.42215729 -272.46599579 -1 -1 -1 
233 5 1 -1.00000000 129.10000610 -303.99848938 -242.08607864 -273.09233093 -1 -1 -1 
234 5 2 1.00000000 128.19999695 -302.42255402 -239.16329956 -271.28175735 -1 -1 -1 
235 5 2 1.00000000 128.19999695 -302.72057343 -239.55187988 -267.42989731 -1 -1 -1 
236 5 2 1.00000000 128.19999695 -302.30123901 -238.12726402 -264.07493591 -1 -1 -1 
237 5 1 -1.00000000 129.10000610 -302.79242706 -235.95135117 -261.01927948 -1 -1 -1 
238 5 2 1.00000000 128.19999695 -302.72700500 -233.29696274 -257.97896194 -1 -1 -1 
239 5 1 -1.00000000 129.10000610 -301.07499695 -230.00308037 -256.55901718 -1 -1 -1 
240 5 1 -1.00000000 129.10000610 -298.02373505 -227.85570526 -257.73155975 -1 -1 -1 
241 5 1 -1.00000000 129.10000610 -295.03069305 -229.51534653 -259.73058319 -1 -1 -1 
242 5 2 1.00000000 128.19999695 -295.43420410 -227.51304245 -262.91331100 -1 -1 -1 
243 5 1 -1.00000000 129.10000610 -297.52481842 -224.69686699 -262.60257339 -1 -1 -1 
244 5 2 1.00000000 128.19999695 -298.81619263 -220.87351608 -261.21379852 -1 -1 -1 
245 5 2 1.00000000 128.19999695 -301.67996216 -220.87220287 -259.12039566 -1 -1 -1 
246 5 2 1.00000000 128.19999695 -305.22108459 -221.35978603 -258.19285965 -1 -1 -1 
247 5 1 -1.00000000 129.10000610 -308.82896423 -222.67559338 -258.79336548 -1 -1 -1 
248 5 2 1.00000000 128.19999695 -311.21388245 -222.17298317 -261.81461334 -2 -1 -1 
249 5 1 -1.00000000 129.10000610 -313.87438965 -220.34095860 -259.99920273 -2 -1 -1 
250 5 2 1.00000000 128.19999695 -317.31189728 -218.33075428 -259.27591324 -2 -1 -1 
251 6 2 1.00000000 128.19999695 473.45162201 -473.88862610 -159.38394165 2 -2 -1 
252 6 1 -1.00000000 129.10000610 472.60819626 -472.30676651 -156.17771912 2 -2 -1 
253 6 2 1.00000000 128.19999695 472.30342102 -471.14250565 -152.36985016 2 -2 -1 
254 6 2 1.00000000 128.19999695 470.74622345 -468.33713913 -150.47865677 2 -2 -1 
255 6 2 1.00000000 128.19999695 469.13775635 -465.87316132 -147.69190979 2 -2 -1 
256 6 1 -1.00000000 129.10000610 465.95471573 -465.59054184 -145.48937607 2 -2 -1 
257 6 2 1.00000000 128.19999695 465.85178375 -467.10983276 -142.37495422 2 -2 -1 
258 6 1 -1.00000000 129.10000610 467.41539764 -467.36920166 -139.07699585 2 -2 -1 
259 6 1 -1.00000000 129.10000610 468.33965683 -464.50824738 -136.92125702 2 -2 -1 
260 6 1 -1.00000000 129.10000610 470.71350861 -463.14974594 -134.09311676 2 -2 -1 
261 6 2 1.00000000 128.19999695 469.33715057 -459.64897156 -132.71786499 2 -2 -1 
262 6 1 -1.00000000 129.10000610 471.55522156 -456.46121597 -133.83052063 2 -2 -1 
263 6 1 -1.00000000 129.10000610 472.65447617 -453.12153625 -135.36264801 2 -2 -1 
264 6 1 -1.00000000 129.10000610 471.85004425 -450.08729553 -137.26898956 2 -2 -1 
265 6 2 1.00000000 128.19999695 471.26237488 -449.30166245 -140.99324036 2 -2 -1 
266 6 2 1.00000000 128.19999695 473.16571426 -451.92708588 -142.85105133 2 -2 -1 
267 6 1 -1.00000000 129.10000610 471.14431381 -453.98557663 -145.34695435 2 -2 -1 
268 6 1 -1.00000000 129.10000610 468.63618088 -456.72333527 -145.41007996 2 -2 -1 
269 6 2 1.00000000 128.19999695 465.53164291 -456.95512009 -147.10633469 2 -2 -1 
270 6 1 -1.00000000 129.10000610 464.69963837 -453.46158600 -148.64133453 2 -2 -1 
271 6 1 -1.00000000 129.10000610 462.54348755 -450.85876083 -146.62620163 2 -2 -1 
272 6 1 -1.00000000 129.10000610 461.68486023 -448.06660843 -143.95450974 2 -2 -1 
273 6 2 1.00000000 128.19999695 461.94194031 -446.78424072 -140.25668335 2 -2 -1 
274 6 1 -1.00000000 129.10000610 465.47709656 -445.33971214 -139.57872009 2 -2 -1 
275 6 1 -1.00000000 129.10000610 466.36806488 -443.50067139 -143.09148407 2 -2 -1 
276 6 2 1.00000000 128.19999695 463.50839233 -441.48439789 -143.11249542 2 -2 -1 
277 6 2 1.00000000 128.19999695 461.98124695 -440.17576027 -146.24625015 2 -2 -1 
278 6 2 1.00000000 128.19999695 463.13986588 -441.19061470 -149.57430649 2 -2 -1 
279 6 2 1.00000000 128.19999695 462.44049072 -441.23875809 -153.18838501 2 -2 -1 
280 6 2 1.00000000 128.19999695 459.31007385 -441.99113274 -154.84683609 2 -2 -1 
281 6 1 -1.00000000 129.10000610 457.03502274 -443.90985107 -152.10299301 2 -2 -1 
282 6 1 -1.00000000 129.10000610 453.77677917 -445.76898384 -152.96786118 2 -2 -1 
283 6 1 -1.00000000 129.10000610 453.34574509 -448.89336777 -155.43261337 2 -2 -1 
284 6 2 1.00000000 128.19999695 456.62716675 -448.51075745 -157.76006699 2 -2 -1 
285 6 2 1.00000000 128.19999695 459.03163528 -449.97045517 -155.40238571 2 -2 -1 
286 6 2 1.00000000 128.19999695 462.23397827 -450.68555832 -153.70050049 2 -2 -1 
287 6 1 -1.00000000 129.10000610 464.77952576 -453.02379227 -155.64065933 2 -2 -1 
288 6 2 1.00000000 128.19999695 465.05824280 -453.23049927 -159.27828979 2 -2 -1 
289 6 1 -1.00000000 129.10000610 462.41839600 -456.45432281 -159.49237823 2 -2 -1 
290 6 1 -1.00000000 129.10000610 462.80922318 -460.18325424 -159.53041077 2 -2 -1 
291 6 1 -1.00000000 129.10000610 466.43254471 -461.85659409 -160.14106369 2 -2 -1 
292 6 2 1.00000000 128.19999695 469.60956573 -463.42970657 -159.71493149 2 -2 -1 
293 6 1 -1.00000000 129.10000610 472.12081528 -465.54916763 -158.31156158 2 -2 -1 
294 6 2 1.00000000 128.19999695 475.36244583 -465.04064178 -156.60276794 2 -2 -1 
295 6 2 1.00000000 128.19999695 477.82723236 -463.20665741 -159.08998871 2 -2 -1 
296 6 2 1.00000000 128.19999695 479.45853424 -459.54855347 -158.96125793 2 -2 -1 
297 6 1 -1.00000000 129.10000610 481.49819946 -457.23938751 -160.71298218 2 -2 -1 
298 6 2 1.00000000 128.19999695 483.02741241 -455.48093796 -163.41394424 2 -2 -1 
299 6 1 -1.00000000 129.10000610 486.62168121 -455.42689896 -163.41257477 2 -2 -1 
300 6 2 1.00000000 128.19999695 488.44392395 -457.33185196 -160.65886688 2 -2 -1 
301 7 2 1.00000000 128.19999695 37.97415543 -45.70306396 -767.32188416 0 0 -4 
302 7 1 -1.00000000 129.10000610 39.61954498 -45.54399872 -763.77469635 0 0 -4 
303 7 2 1.00000000 128.19999695 38.16468048 -42.81049728 -761.56547546 0 0 -4 
304 7 2 1.00000000 128.19999695 38.29027939 -39.37757111 -760.07843018 0 0 -4 
305 7 2 1.00000000 128.19999695 36.04912949 -36.29451752 -758.69038391 0 0 -4 
306 7 1 -1.00000000 129.10000610 35.36765289 -34.28506851 -761.73091888 0 0 -4 
307 7 2 1.00000000 128.19999695 35.49840164 -30.69213676 -763.06778717 0 0 -4 
308 7 1 -1.00000000 129.10000610 34.94697571 -27.20656395 -764.25588226 0 0 -4 
309 7 1 -1.00000000 129.10000610 32.15634918 -26.03540611 -766.41986084 0 0 -4 
310 7 1 -1.00000000 129.10000610 28.94556999 -27.29997826 -765.14422607 0 0 -4 
311 7 2 1.00000000 128.19999695 28.30418396 -29.98986816 -762.43299103 0 0 -4 
312 7 1 -1.00000000 129.10000610 24.94507980 -31.16901970 -763.14857483 0 0 -4 
313 7 1 -1.00000000 129.10000610 23.62911797 -33.12777710 -765.95222092 0 0 -4 
314 7 1 -1.00000000 129.10000610 25.60792542 -36.18458939 -766.51311493 0 0 -4 
315 7 2 1.00000000 128.19999695 24.78710747 -39.96179581 -765.40294647 0 0 -4 
316 7 2 1.00000000 128.19999695 21.88138199 -41.79803085 -766.61096191 0 0 -4 
317 7 1 -1.00000000 129.10000610 21.33793640 -45.59394836 -767.92596817 0 0 -4 
318 7 1 -1.00000000 129.10000610 20.44822884 -44.62054825 -771.87533951 0 0 -4 
319 7 2 1.00000000 128.19999695 21.63038445 -41.62965775 -774.15143967 0 0 -4 
320 7 1 -1.00000000 129.10000610 19.48882484 -40.86196136 -777.25157547 0 0 -4 
321 7 1 -1.00000000 129.10000610 18.17963600 -37.52966690 -778.21076965 0 0 -4 
322 7 1 -1.00000000 129.10000610 17.48908997 -33.53911591 -778.74961090 0 0 -4 
323 7 2 1.00000000 128.19999695 14.98863125 -30.60379219 -778.93047714 0 0 -4 
324 7 1 -1.00000000 129.10000610 13.04096127 -27.73638153 -779.25278091 0 0 -4 
325 7 1 -1.00000000 129.10000610 13.24947453 -23.85877037 -778.98544693 0 0 -4 
326 7 2 1.00000000 128.19999695 9.85655594 -23.42133141 -779.83973694 0 0 -4 
327 7 2 1.00000000 128.19999695 8.28613567 -20.44359016 -780.71385956 0 0 -4 
328 7 2 1.00000000 128.19999695 5.31478786 -18.24720383 -781.63287735 0 0 -4 
329 7 2 1.00000000 128.19999695 6.80634975 -14.86945915 -783.29604721 0 0 -4 
330 7 2 1.00000000 128.19999695 6.19153118 -13.11441517 -786.50691986 0 0 -4 
331 7 1 -1.00000000 129.10000610 9.66376781 -12.57534885 -788.79954529 0 0 -4 
332 7 1 -1.00000000 129.10000610 10.32363415 -8.67812347 -789.76863480 0 0 -4 
333 7 1 -1.00000000 129.10000610 6.97594404 -6.77202129 -789.06264496 0 0 -4 
334 7 2 1.00000000 128.19999695 3.66758442 -6.26689816 -787.33286285 0 0 -4 
335 7 2 1.00000000 128.19999695 2.55076051 -6.53422308 -784.05150604 0 0 -4 
336 7 2 1.00000000 128.19999695 -0.03128837 -9.01886940 -782.65675354 0 0 -4 
337 7 1 -1.00000000 129.10000610 -0.68267548 -12.16210461 -780.55778122 0 0 -4 
338 7 2 1.00000000 128.19999695 -4.21877432 -13.53379917 -781.28530884 0 0 -4 
339 7 1 -1.00000000 129.10000610 -6.62817001 -14.80046463 -778.77598953 0 0 -4 
340 7 1 -1.00000000 129.10000610 -9.52216625 -13.30010128 -776.26144409 0 0 -4 
341 7 1 -1.00000000 129.10000610 -10.31856060 -11.05805683 -773.20716476 0 0 -4 
342 7 2 1.00000000 128.19999695 -7.93473387 -9.24031830 -770.78519440 0 0 -4 
343 7 1 -1.00000000 129.10000610 -9.56868553 -7.18329859 -768.08880615 0 0 -4 
344 7 2 1.00000000 128.19999695 -11.42150497 -5.93452215 -765.08044434 0 0 -4 
345 7 2 1.00000000 128.19999695 -15.12326241 -5.28994989 -766.12567139 0 0 -4 
346 7 2 1.00000000 128.19999695 -17.95600891 -7.65137959 -766.74811935 0 0 -4 
347 7 1 -1.00000000 129.10000610 -21.10659981 -5.20656300 -767.05876160 0 0 -4 
348 7 2 1.00000000 128.19999695 -24.77929878 -6.04573536 -768.26039505 0 0 -4 
349 7 1 -1.00000000 129.10000610 -27.05875969 -3.30662680 -766.68077469 0 0 -4 
350 7 2 1.00000000 128.19999695 -28.31083488 -0.30388746 -764.58469391 0 0 -4 
351 8 2 1.00000000 128.19999695 34.88529587 -262.54697800 593.56406975 0 -1 3 
352 8 1 -1.00000000 129.10000610 31.18006897 -262.22750473 592.08003616 0 -1 3 
353 8 2 1.00000000 128.19999695 30.23299789 -258.64162064 591.35851479 0 -1 3 
354 8 2 1.00000000 128.19999695 31.30785751 -255.23657608 590.65993309 0 -1 3 
355 8 2 1.00000000 128.19999695 32.50900269 -251.97640610 589.61835480 0 -1 3 
356 8 1 -1.00000000 129.10000610 34.91241837 -251.53556442 586.39387131 0 -1 3 
357 8 2 1.00000000 128.19999695 37.05812454 -248.55419922 586.06951141 0 -1 3 
358 8 1 -1.00000000 129.10000610 36.99622345 -246.30111694 583.16219711 0 -1 3 
359 8 1 -1.00000000 129.10000610 38.48701859 -245.49927521 579.66921997 0 -1 3 
360 8 1 -1.00000000 129.10000610 41.44211960 -243.67978287 581.15880585 0 -1 3 
361 8 2 1.00000000 128.19999695 42.17263412 -241.46361160 584.02999878 0 -1 3 
362 8 1 -1.00000000 129.10000610 41.66230011 -239.69212341 587.54880905 0 -1 3 
363 8 1 -1.00000000 129.10000610 38.70925522 -237.35659409 586.94031906 0 -1 3 
364 8 1 -1.00000000 129.10000610 35.79309464 -235.35921669 588.75411987 0 -1 3 
365 8 2 1.00000000 128.19999695 33.49954605 -237.58644485 591.31844521 0 -1 3 
366 8 2 1.00000000 128.19999695 34.50658417 -241.20616913 590.24169540 0 -1 3 
367 8 1 -1.00000000 129.10000610 36.80382919 -242.40389633 592.47408104 0 -1 3 
368 8 1 -1.00000000 129.10000610 36.09025574 -246.37804413 593.16219521 0 -1 3 