ITEM: TIMESTEP
44650000 
ITEM: NUMBER OF ATOMS 
25000 
ITEM: BOX BOUNDS pp pp pp 
-103.678017 103.678017 
-103.678017 103.678017 
-103.678017 103.678017 
ITEM: ATOMS id mol type q mass xu yu zu ix iy iz 
1 1 2 1.00000000 128.19999695 587.48990250 -173.56536865 -212.12464762 3 -1 -1 
2 1 1 -1.00000000 129.10000610 585.77525330 -175.38469124 -209.40505838 3 -1 -1 
3 1 2 1.00000000 128.19999695 585.25318527 -178.97170830 -208.09356511 3 -1 -1 
4 1 2 1.00000000 128.19999695 585.91185760 -182.28982162 -210.31454206 3 -1 -1 
5 1 2 1.00000000 128.19999695 583.17578888 -183.92833138 -212.60129738 3 -1 -1 
6 1 1 -1.00000000 129.10000610 582.63955688 -181.38172150 -215.39692211 3 -1 -1 
7 1 2 1.00000000 128.19999695 579.63322449 -180.82852554 -216.68888950 3 -1 -1 
8 1 1 -1.00000000 129.10000610 577.91255569 -179.59442329 -213.44713831 3 -1 -1 
9 1 1 -1.00000000 129.10000610 576.12132645 -178.31277657 -210.10566831 3 -1 -1 
10 1 1 -1.00000000 129.10000610 575.01488876 -179.57355309 -206.54127872 3 -1 -1 
11 1 2 1.00000000 128.19999695 571.67835999 -181.68143654 -207.21345374 3 -1 -1 
12 1 1 -1.00000000 129.10000610 567.90604019 -181.25896072 -207.84577721 3 -1 -1 
13 1 1 -1.00000000 129.10000610 568.02867126 -177.58672905 -209.30571687 3 -1 -1 
14 1 1 -1.00000000 129.10000610 569.72972870 -174.48323441 -208.77418184 3 -1 -1 
15 1 2 1.00000000 128.19999695 568.76989746 -171.27315521 -210.94475079 3 -1 -1 
16 1 2 1.00000000 128.19999695 569.97943115 -170.08737564 -214.24137259 3 -1 -1 
17 1 1 -1.00000000 129.10000610 572.86156845 -167.96461487 -215.17196369 3 -1 -1 
18 1 1 -1.00000000 129.10000610 573.26764297 -165.36148453 -217.92952347 3 -1 -1 
19 1 2 1.00000000 128.19999695 571.53758240 -164.26221466 -221.04805660 3 -1 -1 
20 1 1 -1.00000000 129.10000610 570.77078247 -161.61983109 -223.82412148 3 -1 -1 
21 1 1 -1.00000000 129.10000610 569.80360413 -162.77676773 -227.22426414 3 -1 -1 
22 1 1 -1.00000000 129.10000610 570.69434738 -165.67418289 -229.63105202 3 -1 -1 
23 1 2 1.00000000 128.19999695 570.87818527 -169.20400238 -227.70719910 3 -1 -1 
24 1 1 -1.00000000 129.10000610 567.66009521 -170.68859482 -226.19589996 3 -1 -1 
25 1 1 -1.00000000 129.10000610 566.72061539 -171.00204468 -222.66987228 3 -1 -1 
26 1 2 1.00000000 128.19999695 565.31786728 -172.67340851 -219.55225277 3 -1 -1 
27 1 2 1.00000000 128.19999695 567.88330460 -175.18335724 -217.96805286 3 -1 -1 
28 1 2 1.00000000 128.19999695 569.89075470 -178.40414047 -218.24896336 3 -1 -1 
29 1 2 1.00000000 128.19999695 569.03573227 -180.73283958 -220.66017437 3 -1 -1 
30 1 2 1.00000000 128.19999695 566.77602005 -182.57003784 -223.17754078 3 -1 -1 
31 1 1 -1.00000000 129.10000610 565.12228012 -180.34200859 -225.50001717 3 -1 -1 
32 1 1 -1.00000000 129.10000610 566.52130508 -179.89804649 -229.01845360 3 -1 -1 
33 1 1 -1.00000000 129.10000610 566.80472565 -182.13308525 -232.10477066 3 -1 -1 
34 1 2 1.00000000 128.19999695 564.23140717 -184.50813675 -233.40781021 3 -1 -1 
35 1 2 1.00000000 128.19999695 563.02557373 -185.81567192 -236.83789825 3 -1 -1 
36 1 2 1.00000000 128.19999695 562.45243454 -189.47583199 -237.93175316 3 -1 -1 
37 1 1 -1.00000000 129.10000610 558.67750168 -189.05042839 -239.64606476 3 -1 -1 
38 1 2 1.00000000 128.19999695 557.69722748 -187.24473000 -242.94601059 3 -1 -1 
39 1 1 -1.00000000 129.10000610 560.62542725 -187.90646172 -245.24790955 3 -1 -1 
40 1 1 -1.00000000 129.10000610 562.62392044 -189.93037033 -248.05115891 3 -1 -1 
41 1 1 -1.00000000 129.10000610 565.07464600 -191.95467663 -250.45956039 3 -1 -1 
42 1 2 1.00000000 128.19999695 563.72915268 -193.56937695 -253.74412537 3 -1 -1 
43 1 1 -1.00000000 129.10000610 564.07305527 -190.48333549 -256.34485626 3 -1 -1 
44 1 2 1.00000000 128.19999695 566.75704956 -188.52592278 -256.67034149 3 -1 -1 
45 1 2 1.00000000 128.19999695 569.20354843 -186.62753105 -258.91876602 3 -1 -1 
46 1 2 1.00000000 128.19999695 570.90778732 -183.44164276 -259.22747421 3 -1 -1 
47 1 1 -1.00000000 129.10000610 574.13419342 -182.61642075 -257.01047897 3 -1 -1 
48 1 2 1.00000000 128.19999695 577.26430130 -180.54972267 -256.40517807 3 -1 -1 
49 1 1 -1.00000000 129.10000610 577.37239075 -177.80361938 -253.52378845 3 -1 -1 
50 1 2 1.00000000 128.19999695 575.89702606 -174.44588470 -253.31328964 3 -1 -1 
51 2 2 1.00000000 128.19999695 574.57077408 324.14842224 -235.60010719 3 2 -1 
52 2 1 -1.00000000 129.10000610 572.01354599 325.53797913 -237.63240814 3 2 -1 
53 2 2 1.00000000 128.19999695 568.36506653 325.04557037 -236.45718193 3 2 -1 
54 2 2 1.00000000 128.19999695 565.27850723 323.54723358 -238.40535545 3 2 -1 
55 2 2 1.00000000 128.19999695 563.71755219 323.58156586 -241.83407593 3 2 -1 
56 2 1 -1.00000000 129.10000610 565.11656570 326.63731384 -243.77701569 3 2 -1 
57 2 2 1.00000000 128.19999695 566.09008408 324.80127716 -247.23388290 3 2 -1 
58 2 1 -1.00000000 129.10000610 567.18565750 324.39879608 -250.87475204 3 2 -1 
59 2 1 -1.00000000 129.10000610 569.72029495 324.57881927 -253.57198334 3 2 -1 
60 2 1 -1.00000000 129.10000610 570.51688766 325.96669006 -257.13612747 3 2 -1 
61 2 2 1.00000000 128.19999695 571.72259140 328.30039978 -260.32258224 3 2 -1 
62 2 1 -1.00000000 129.10000610 569.58304214 327.13404083 -263.35662842 3 2 -1 
63 2 1 -1.00000000 129.10000610 566.12985611 326.69747925 -265.55496216 3 2 -1 
64 2 1 -1.00000000 129.10000610 565.84303284 328.84029388 -268.39346313 3 2 -1 
65 2 2 1.00000000 128.19999695 564.64926910 332.46305847 -270.01394653 3 2 -1 
66 2 2 1.00000000 128.19999695 561.31510544 332.35610199 -271.41377258 3 2 -1 
67 2 1 -1.00000000 129.10000610 560.09190750 332.44149017 -275.17479706 3 2 -1 
68 2 1 -1.00000000 129.10000610 558.99638367 335.61430359 -276.82888031 3 2 -1 
69 2 2 1.00000000 128.19999695 556.78866577 338.73236084 -275.64331055 3 2 -1 
70 2 1 -1.00000000 129.10000610 552.82458496 339.34765625 -274.77424622 3 2 -1 
71 2 1 -1.00000000 129.10000610 551.05233765 341.43758392 -277.41246033 3 2 -1 
72 2 1 -1.00000000 129.10000610 549.96968079 339.06231689 -280.15332031 3 2 -1 
73 2 2 1.00000000 128.19999695 550.37100983 339.77869415 -283.63759613 3 2 -1 
74 2 1 -1.00000000 129.10000610 550.56586456 342.91506958 -285.30425262 3 2 -1 
75 2 1 -1.00000000 129.10000610 547.24915314 345.20175171 -284.82185364 3 2 -1 
76 2 2 1.00000000 128.19999695 545.11800385 347.43158722 -282.63245392 3 2 -1 
77 2 2 1.00000000 128.19999695 542.41504669 349.15370178 -280.49393463 3 2 -1 
78 2 2 1.00000000 128.19999695 540.28598785 347.39011383 -277.96853638 3 2 -1 
79 2 2 1.00000000 128.19999695 540.66902924 344.84198761 -275.61271667 3 2 -1 
80 2 2 1.00000000 128.19999695 540.29205322 341.51683044 -273.68983459 3 2 -1 
81 2 1 -1.00000000 129.10000610 540.97677612 338.21875763 -275.07081604 3 2 -1 
82 2 1 -1.00000000 129.10000610 541.31108093 338.34836578 -278.94958496 3 2 -1 
83 2 1 -1.00000000 129.10000610 539.50965881 335.32123566 -280.99808502 3 2 -1 
84 2 2 1.00000000 128.19999695 539.96701050 336.34829712 -284.50131989 3 2 -1 
85 2 2 1.00000000 128.19999695 536.98861694 338.18917847 -286.31109619 3 2 -1 
86 2 2 1.00000000 128.19999695 535.71121979 335.19215393 -287.92358398 3 2 -1 
87 2 1 -1.00000000 129.10000610 535.54178619 333.63905334 -291.42336273 3 2 -1 
88 2 2 1.00000000 128.19999695 531.79487610 332.78136444 -292.49915314 3 2 -1 
89 2 1 -1.00000000 129.10000610 529.33954620 333.14588928 -289.46714783 3 2 -1 
90 2 1 -1.00000000 129.10000610 526.86779785 330.46849823 -288.82110596 3 2 -1 
91 2 1 -1.00000000 129.10000610 526.81054688 326.81497955 -289.68633270 3 2 -1 
92 2 2 1.00000000 128.19999695 524.80663300 323.72075653 -289.38552094 3 2 -1 
93 2 1 -1.00000000 129.10000610 522.55273438 321.78121185 -286.90159607 3 2 -1 
94 2 2 1.00000000 128.19999695 523.09109497 319.77734375 -283.53115845 3 2 -1 
95 2 2 1.00000000 128.19999695 521.12065125 317.49707794 -281.45471191 3 2 -1 
96 2 2 1.00000000 128.19999695 521.35775757 315.49775696 -278.14311981 3 2 -1 
97 2 1 -1.00000000 129.10000610 523.09039307 317.92009735 -275.48565674 3 2 -1 
98 2 2 1.00000000 128.19999695 524.88185883 319.66228485 -273.11435699 3 2 -1 
99 2 1 -1.00000000 129.10000610 527.42113495 316.98600769 -271.85440063 3 2 -1 
100 2 2 1.00000000 128.19999695 531.35186005 317.15370941 -271.04334641 3 2 -1 
101 3 2 1.00000000 128.19999695 328.11290741 -116.76457214 58.66135406 2 -1 0 
102 3 1 -1.00000000 129.10000610 326.24571228 -113.62056732 60.28873825 2 -1 0 
103 3 2 1.00000000 128.19999695 323.44626617 -111.68606567 61.23363876 2 -1 0 
104 3 2 1.00000000 128.19999695 320.06689453 -113.60037231 61.95886993 2 -1 0 
105 3 2 1.00000000 128.19999695 317.74697113 -115.57036591 64.40596008 2 -1 0 
106 3 1 -1.00000000 129.10000610 314.13338470 -115.16048431 64.76841736 2 -1 0 
107 3 2 1.00000000 128.19999695 312.31768799 -114.24951172 67.92183685 2 -1 0 
108 3 1 -1.00000000 129.10000610 310.74127197 -112.70420074 71.00530243 1 -1 0 
109 3 1 -1.00000000 129.10000610 312.63191223 -112.07026672 73.82947540 2 -1 0 
110 3 1 -1.00000000 129.10000610 312.67366028 -109.52922821 76.62307739 2 -1 0 
111 3 2 1.00000000 128.19999695 310.43111420 -106.53769684 77.20104218 1 -1 0 
112 3 1 -1.00000000 129.10000610 309.41760254 -106.73660278 80.93507385 1 -1 0 
113 3 1 -1.00000000 129.10000610 306.34069061 -104.45168304 82.35337067 1 -1 0 
114 3 1 -1.00000000 129.10000610 303.98904419 -101.85770416 82.97238922 1 0 0 
115 3 2 1.00000000 128.19999695 301.73981476 -99.57907867 85.04171753 1 0 0 
116 3 2 1.00000000 128.19999695 299.68408966 -97.82094574 87.74103546 1 0 0 
117 3 1 -1.00000000 129.10000610 301.48258972 -94.81977081 90.10461426 1 0 0 
118 3 1 -1.00000000 129.10000610 303.27848816 -91.80955505 92.21601868 1 0 0 
119 3 2 1.00000000 128.19999695 306.64395905 -92.18019867 93.41459656 1 0 0 
120 3 1 -1.00000000 129.10000610 310.12535095 -90.95401764 91.29610443 1 0 0 
121 3 1 -1.00000000 129.10000610 313.40081787 -90.67070770 93.93763733 2 0 0 
122 3 1 -1.00000000 129.10000610 317.03424835 -90.91338348 94.90812683 2 0 0 
123 3 2 1.00000000 128.19999695 319.68213654 -88.35233307 93.39579010 2 0 0 
124 3 1 -1.00000000 129.10000610 323.28984833 -88.11013031 94.02072144 2 0 0 
125 3 1 -1.00000000 129.10000610 325.73611450 -88.20688629 91.10150146 2 0 0 
126 3 2 1.00000000 128.19999695 328.03224182 -88.23442841 87.93350220 2 0 0 
127 3 2 1.00000000 128.19999695 330.54991150 -90.55964661 86.20894623 2 0 0 
128 3 2 1.00000000 128.19999695 333.57901001 -92.33470917 88.12335968 2 0 0 
129 3 2 1.00000000 128.19999695 337.24620056 -93.46117401 88.87960052 2 0 0 
130 3 2 1.00000000 128.19999695 337.88122559 -97.23126984 89.57636261 2 0 0 
131 3 1 -1.00000000 129.10000610 338.17160797 -100.61725616 91.31701660 2 0 0 
132 3 1 -1.00000000 129.10000610 339.12268066 -103.94892883 90.57466125 2 -1 0 
133 3 1 -1.00000000 129.10000610 341.83879852 -105.91684723 88.73892975 2 -1 0 
134 3 2 1.00000000 128.19999695 344.47688293 -104.64939117 86.60087585 2 -1 0 
135 3 2 1.00000000 128.19999695 345.78268433 -103.89632416 83.04808807 2 -1 0 
136 3 2 1.00000000 128.19999695 345.55021667 -100.36955261 81.51291656 2 0 0 
137 3 1 -1.00000000 129.10000610 347.30498505 -99.20543671 78.41169739 2 0 0 
138 3 2 1.00000000 128.19999695 350.30688477 -100.34649658 77.03670502 2 0 0 
139 3 1 -1.00000000 129.10000610 351.15436554 -100.14049530 73.25560760 2 0 0 
140 3 1 -1.00000000 129.10000610 354.54116058 -101.35278320 73.24230194 2 0 0 
141 3 1 -1.00000000 129.10000610 357.35898972 -101.85473633 75.70487976 2 0 0 
142 3 2 1.00000000 128.19999695 357.38775635 -101.35331726 79.15258789 2 0 0 
143 3 1 -1.00000000 129.10000610 355.33257675 -101.92264557 82.04148102 2 0 0 
144 3 2 1.00000000 128.19999695 353.10316086 -103.92105103 84.22910309 2 -1 0 
145 3 2 1.00000000 128.19999695 353.90972900 -107.60828400 83.39762878 2 -1 0 
146 3 2 1.00000000 128.19999695 352.38913727 -109.73527527 80.68904877 2 -1 0 
147 3 1 -1.00000000 129.10000610 352.24272537 -107.25521088 77.78879547 2 -1 0 
148 3 2 1.00000000 128.19999695 353.53132629 -108.30666351 74.33054352 2 -1 0 
149 3 1 -1.00000000 129.10000610 355.96247482 -110.93152618 72.96947479 2 -1 0 
150 3 2 1.00000000 128.19999695 357.54301071 -113.64157104 71.15799713 2 -1 0 
151 4 2 1.00000000 128.19999695 -245.88224792 379.71963882 59.81531143 -1 2 0 
152 4 1 -1.00000000 129.10000610 -246.00345230 376.30303955 60.22543716 -1 2 0 
153 4 2 1.00000000 128.19999695 -246.34098816 374.41413498 57.02196121 -1 2 0 
154 4 2 1.00000000 128.19999695 -245.17734528 372.03491211 54.38770676 -1 2 0 
155 4 2 1.00000000 128.19999695 -245.92587280 369.09173203 52.31556320 -1 2 0 
156 4 1 -1.00000000 129.10000610 -249.51422882 368.10631943 53.35685349 -1 2 0 
157 4 2 1.00000000 128.19999695 -250.05132675 364.26917267 52.62088776 -1 2 0 
158 4 1 -1.00000000 129.10000610 -246.75400162 362.12976837 52.82023239 -1 2 0 
159 4 1 -1.00000000 129.10000610 -243.50704956 363.01233673 51.45756149 -1 2 0 
160 4 1 -1.00000000 129.10000610 -241.50635147 364.44119644 54.46270752 -1 2 0 
161 4 2 1.00000000 128.19999695 -241.61841965 364.89665222 58.30693817 -1 2 0 
162 4 1 -1.00000000 129.10000610 -243.26313400 368.28760529 58.97689819 -1 2 0 
163 4 1 -1.00000000 129.10000610 -245.61521149 368.11320114 61.70117950 -1 2 0 
164 4 1 -1.00000000 129.10000610 -249.29532242 367.76813126 62.64796829 -1 2 0 
165 4 2 1.00000000 128.19999695 -252.59260178 369.25205612 61.42377090 -1 2 0 
166 4 2 1.00000000 128.19999695 -252.76708603 372.30915070 58.88895035 -1 2 0 
167 4 1 -1.00000000 129.10000610 -252.74634171 375.62615585 56.93547440 -1 2 0 
168 4 1 -1.00000000 129.10000610 -251.84382629 377.87670517 53.82392502 -1 2 0 
169 4 2 1.00000000 128.19999695 -251.87301254 375.53768539 50.79011917 -1 2 0 
170 4 1 -1.00000000 129.10000610 -251.55910873 375.14583969 47.14640427 -1 2 0 
171 4 1 -1.00000000 129.10000610 -252.98065186 375.70928574 43.55131912 -1 2 0 
172 4 1 -1.00000000 129.10000610 -255.08504105 373.25025940 41.03475571 -1 2 0 
173 4 2 1.00000000 128.19999695 -257.27471924 372.53111267 37.71592712 -1 2 0 
174 4 1 -1.00000000 129.10000610 -259.04871750 372.23173523 34.17343140 -1 2 0 
175 4 1 -1.00000000 129.10000610 -257.82993698 374.62622833 31.77868462 -1 2 0 
176 4 2 1.00000000 128.19999695 -254.74666977 374.28776169 29.90646744 -1 2 0 
177 4 2 1.00000000 128.19999695 -254.22578812 370.86110306 28.70301056 -1 2 0 
178 4 2 1.00000000 128.19999695 -255.65777969 367.70286942 26.95645523 -1 2 0 
179 4 2 1.00000000 128.19999695 -259.53440094 367.07819748 26.35335922 -1 2 0 
180 4 2 1.00000000 128.19999695 -262.31610107 369.05462265 27.98386765 -1 2 0 
181 4 1 -1.00000000 129.10000610 -265.05022430 365.85911942 28.02060509 -1 2 0 
182 4 1 -1.00000000 129.10000610 -267.88438416 363.42740631 27.32638931 -1 2 0 
183 4 1 -1.00000000 129.10000610 -267.11387634 361.04528427 24.43967628 -1 2 0 
184 4 2 1.00000000 128.19999695 -264.63124084 359.74348450 21.77686691 -1 2 0 
185 4 2 1.00000000 128.19999695 -261.72113800 361.02745056 19.94885254 -1 2 0 
186 4 2 1.00000000 128.19999695 -258.45151901 359.86091232 21.98490143 -1 2 0 
187 4 1 -1.00000000 129.10000610 -255.58145142 362.35145569 21.56296921 -1 2 0 
188 4 2 1.00000000 128.19999695 -252.00686646 360.88415527 20.86053276 -1 2 0 
189 4 1 -1.00000000 129.10000610 -248.44139099 360.55107498 20.06975937 -1 2 0 
190 4 1 -1.00000000 129.10000610 -245.39855194 360.25469589 17.45814705 -1 2 0 
191 4 1 -1.00000000 129.10000610 -242.55247498 359.24033737 15.43853378 -1 2 0 
192 4 2 1.00000000 128.19999695 -243.57436752 355.66736603 14.10744572 -1 2 0 
193 4 1 -1.00000000 129.10000610 -244.37829590 352.12039185 13.88180447 -1 2 0 
194 4 2 1.00000000 128.19999695 -242.52184677 348.88713074 13.40934181 -1 2 0 
195 4 2 1.00000000 128.19999695 -238.74890900 348.00140381 13.04863358 -1 2 0 
196 4 2 1.00000000 128.19999695 -235.28536797 347.95439148 13.09737110 -1 2 0 
197 4 1 -1.00000000 129.10000610 -232.16012764 350.07250977 11.93140793 -1 2 0 
198 4 2 1.00000000 128.19999695 -230.32193756 352.98128128 10.40310097 -1 2 0 
199 4 1 -1.00000000 129.10000610 -230.02804756 356.45957947 11.18299770 -1 2 0 
200 4 2 1.00000000 128.19999695 -227.94492531 359.20931625 12.40439892 -1 2 0 
201 5 2 1.00000000 128.19999695 -264.00302505 -241.97393799 -201.76188135 -1 -1 -1 
202 5 1 -1.00000000 129.10000610 -260.95092010 -240.28674698 -201.28459072 -1 -1 -1 
203 5 2 1.00000000 128.19999695 -259.37882233 -237.82589722 -203.72160578 -1 -1 -1 
204 5 2 1.00000000 128.19999695 -256.73618317 -238.54177094 -206.40355945 -1 -1 -1 
205 5 2 1.00000000 128.19999695 -257.62296295 -236.91151810 -210.19518065 -1 -1 -1 
206 5 1 -1.00000000 129.10000610 -259.29925537 -233.36085892 -210.18802309 -1 -1 -1 
207 5 2 1.00000000 128.19999695 -261.04632568 -232.89290810 -213.53656912 -1 -1 -1 
208 5 1 -1.00000000 129.10000610 -261.53653336 -236.71901512 -214.81544018 -1 -1 -1 
209 5 1 -1.00000000 129.10000610 -260.87169266 -240.02273560 -213.48405933 -1 -1 -1 
210 5 1 -1.00000000 129.10000610 -259.93085861 -243.73586273 -212.67770481 -1 -1 -1 
211 5 2 1.00000000 128.19999695 -259.95377731 -245.76419067 -209.39886570 -1 -1 -1 
212 5 1 -1.00000000 129.10000610 -258.98928452 -245.92727280 -205.93673885 -1 -1 -1 
213 5 1 -1.00000000 129.10000610 -255.41788101 -245.18254471 -204.79211164 -1 -1 -1 
214 5 1 -1.00000000 129.10000610 -252.45955276 -245.54081726 -207.40774019 -1 -1 -1 
215 5 2 1.00000000 128.19999695 -250.91098404 -245.63713074 -210.94770479 -1 -1 -1 
216 5 2 1.00000000 128.19999695 -248.83748627 -248.47591400 -212.75430679 -1 -1 -1 
217 5 1 -1.00000000 129.10000610 -245.61256409 -247.21097183 -213.75976562 -1 -1 -1 
218 5 1 -1.00000000 129.10000610 -244.18065643 -243.62960434 -214.71016407 -1 -1 -1 
219 5 2 1.00000000 128.19999695 -241.71366119 -240.99271774 -213.79804087 -1 -1 -1 
220 5 1 -1.00000000 129.10000610 -238.80398369 -239.76892090 -211.27225542 -1 -1 -1 
221 5 1 -1.00000000 129.10000610 -236.37069130 -238.58808136 -213.64892006 -1 -1 -1 
222 5 1 -1.00000000 129.10000610 -234.13633347 -238.04643250 -216.57636261 -1 -1 -1 
223 5 2 1.00000000 128.19999695 -234.04504967 -234.51986885 -217.61496735 -1 -1 -1 
224 5 1 -1.00000000 129.10000610 -232.89989090 -230.81029129 -216.79162121 -1 -1 -1 
225 5 1 -1.00000000 129.10000610 -235.49336624 -228.51504898 -214.56069565 -1 -1 -1 
226 5 2 1.00000000 128.19999695 -232.61047745 -227.49080849 -212.05149126 -1 -1 -1 
227 5 2 1.00000000 128.19999695 -230.65157700 -229.71617126 -209.94067216 -1 -1 -1 
228 5 2 1.00000000 128.19999695 -231.72429848 -233.23871422 -209.14398885 -1 -1 -1 
229 5 2 1.00000000 128.19999695 -234.66419220 -234.93535233 -207.47536945 -1 -1 -1 
230 5 2 1.00000000 128.19999695 -237.84518814 -233.41518402 -209.17992926 -1 -1 -1 
231 5 1 -1.00000000 129.10000610 -241.14900208 -234.15546227 -207.53757480 -1 -1 -1 
232 5 1 -1.00000000 129.10000610 -243.96761322 -233.86138725 -210.14000297 -1 -1 -1 
233 5 1 -1.00000000 129.10000610 -246.88963318 -236.41582108 -209.90600467 -1 -1 -1 
234 5 2 1.00000000 128.19999695 -250.50613022 -237.08325386 -211.61482000 -1 -1 -1 
235 5 2 1.00000000 128.19999695 -250.32013321 -239.37172699 -214.53400326 -1 -1 -1 
236 5 2 1.00000000 128.19999695 -248.20177078 -238.47987747 -217.87603092 -1 -1 -1 
237 5 1 -1.00000000 129.10000610 -249.77029037 -238.15210915 -221.46094513 -1 -1 -1 
238 5 2 1.00000000 128.19999695 -253.15262985 -236.04830360 -221.54394722 -1 -1 -1 
239 5 1 -1.00000000 129.10000610 -256.66637802 -235.88275719 -221.48884964 -1 -1 -1 
240 5 1 -1.00000000 129.10000610 -257.89482117 -238.87150955 -223.82730103 -1 -1 -1 
241 5 1 -1.00000000 129.10000610 -256.57735062 -242.49541092 -224.69106483 -1 -1 -1 
242 5 2 1.00000000 128.19999695 -253.72126770 -244.45389175 -226.41621971 -1 -1 -1 
243 5 1 -1.00000000 129.10000610 -252.97464371 -248.35055923 -227.70736504 -1 -1 -1 
244 5 2 1.00000000 128.19999695 -250.30387115 -250.09061813 -230.18602943 -1 -1 -1 
245 5 2 1.00000000 128.19999695 -246.72317505 -249.30954742 -229.81732178 -1 -1 -1 
246 5 2 1.00000000 128.19999695 -245.26483917 -246.04008865 -230.76261711 -1 -1 -1 
247 5 1 -1.00000000 129.10000610 -244.31755829 -243.16380692 -233.49010468 -1 -1 -1 
248 5 2 1.00000000 128.19999695 -241.17216110 -241.57088089 -234.80684471 -1 -1 -1 
249 5 1 -1.00000000 129.10000610 -240.29609680 -237.89464569 -233.61657906 -1 -1 -1 
250 5 2 1.00000000 128.19999695 -240.81064606 -236.37141037 -229.93425560 -1 -1 -1 
251 6 2 1.00000000 128.19999695 524.29026031 -494.90824127 -108.38796997 3 -2 -1 
252 6 1 -1.00000000 129.10000610 522.60613251 -491.74792480 -107.51367950 3 -2 -1 
253 6 2 1.00000000 128.19999695 522.85445404 -488.01224518 -106.71441650 3 -2 -1 
254 6 2 1.00000000 128.19999695 523.42114258 -485.80043793 -109.56757355 3 -2 -1 
255 6 2 1.00000000 128.19999695 524.57402802 -482.51522827 -107.52485657 3 -2 -1 
256 6 1 -1.00000000 129.10000610 527.36968231 -483.23900604 -105.26097870 3 -2 -1 
257 6 2 1.00000000 128.19999695 530.56652069 -483.28201294 -102.68159485 3 -2 0 
258 6 1 -1.00000000 129.10000610 532.97808838 -484.55925751 -100.10446930 3 -2 0 
259 6 1 -1.00000000 129.10000610 536.68292236 -483.84612274 -99.01378632 3 -2 0 
260 6 1 -1.00000000 129.10000610 539.58258057 -483.38101196 -101.30627441 3 -2 0 
261 6 2 1.00000000 128.19999695 537.88912201 -481.42536163 -104.50847626 3 -2 -1 
262 6 1 -1.00000000 129.10000610 535.01495361 -479.14941406 -104.02282715 3 -2 -1 
263 6 1 -1.00000000 129.10000610 535.01925659 -476.96714020 -107.38159943 3 -2 -1 
264 6 1 -1.00000000 129.10000610 532.00141144 -474.63620377 -107.58461761 3 -2 -1 
265 6 2 1.00000000 128.19999695 528.29393005 -474.33308029 -107.85447693 3 -2 -1 
266 6 2 1.00000000 128.19999695 525.43300629 -472.07757950 -106.97518921 3 -2 -1 
267 6 1 -1.00000000 129.10000610 525.90405273 -469.21550369 -105.00625610 3 -2 -1 
268 6 1 -1.00000000 129.10000610 528.06668091 -466.88775253 -103.31009674 3 -2 0 
269 6 2 1.00000000 128.19999695 529.68892670 -463.42123413 -102.50104523 3 -2 0 
270 6 1 -1.00000000 129.10000610 529.88079071 -460.62081146 -99.85619354 3 -2 0 
271 6 1 -1.00000000 129.10000610 530.61717224 -457.46353149 -98.01599121 3 -2 0 
272 6 1 -1.00000000 129.10000610 527.81262970 -456.24544525 -95.89787292 3 -2 0 
273 6 2 1.00000000 128.19999695 528.87265015 -456.36123276 -92.21708679 3 -2 0 
274 6 1 -1.00000000 129.10000610 529.45295715 -456.51784515 -88.41758728 3 -2 0 
275 6 1 -1.00000000 129.10000610 533.23082733 -457.46398544 -88.90568542 3 -2 0 
276 6 2 1.00000000 128.19999695 535.27399445 -457.84850311 -92.56850433 3 -2 0 
277 6 2 1.00000000 128.19999695 537.40422058 -454.88619614 -94.01834106 3 -2 0 
278 6 2 1.00000000 128.19999695 535.06348419 -452.13490677 -95.48373413 3 -2 0 
279 6 2 1.00000000 128.19999695 532.15165710 -449.69144821 -96.47995758 3 -2 0 
280 6 2 1.00000000 128.19999695 530.27901459 -447.59852982 -93.62886047 3 -2 0 
281 6 1 -1.00000000 129.10000610 528.26671600 -445.22868729 -91.36105347 3 -2 0 
282 6 1 -1.00000000 129.10000610 525.56961823 -446.45338058 -88.91348267 3 -2 0 
283 6 1 -1.00000000 129.10000610 522.36698151 -447.75903702 -90.17100525 3 -2 0 
284 6 2 1.00000000 128.19999695 522.23519135 -448.54000854 -94.04045868 3 -2 0 
285 6 2 1.00000000 128.19999695 520.27267456 -451.42749405 -95.56899261 3 -2 0 
286 6 2 1.00000000 128.19999695 518.80754852 -451.03551865 -98.97137451 3 -2 0 
287 6 1 -1.00000000 129.10000610 516.94370270 -454.42163467 -100.02538300 2 -2 0 
288 6 2 1.00000000 128.19999695 514.92204285 -452.54726028 -102.89305878 2 -2 0 
289 6 1 -1.00000000 129.10000610 512.55142212 -452.21763992 -105.75072479 2 -2 -1 
290 6 1 -1.00000000 129.10000610 509.09772491 -452.05212784 -107.71111298 2 -2 -1 
291 6 1 -1.00000000 129.10000610 508.35243225 -455.71426392 -108.78342438 2 -2 -1 
292 6 2 1.00000000 128.19999695 507.02768707 -457.62881851 -111.90657806 2 -2 -1 
293 6 1 -1.00000000 129.10000610 505.43939972 -460.75640106 -110.68764496 2 -2 -1 
294 6 2 1.00000000 128.19999695 507.36589813 -462.95346069 -108.04062653 2 -2 -1 
295 6 2 1.00000000 128.19999695 505.83896637 -462.64408875 -104.23020935 2 -2 -1 
296 6 2 1.00000000 128.19999695 503.96666718 -459.60251236 -102.89610291 2 -2 0 
297 6 1 -1.00000000 129.10000610 502.40154266 -458.85614395 -99.65066528 2 -2 0 
298 6 2 1.00000000 128.19999695 500.57891846 -455.65061569 -98.09367371 2 -2 0 
299 6 1 -1.00000000 129.10000610 503.28472137 -453.08351135 -99.13695526 2 -2 0 
300 6 2 1.00000000 128.19999695 504.84946442 -451.97352982 -102.22599030 2 -2 0 
301 7 2 1.00000000 128.19999695 12.00904179 -132.22459412 -831.28549600 0 -1 -4 
302 7 1 -1.00000000 129.10000610 15.60926247 -132.30858612 -832.94820786 0 -1 -4 
303 7 2 1.00000000 128.19999695 17.91504860 -132.35449982 -835.93520069 0 -1 -4 
304 7 2 1.00000000 128.19999695 18.87812614 -134.92829132 -838.15274143 0 -1 -4 
305 7 2 1.00000000 128.19999695 16.28784561 -137.31233215 -840.11848068 0 -1 -4 
306 7 1 -1.00000000 129.10000610 12.59855175 -137.28188324 -838.76772404 0 -1 -4 
307 7 2 1.00000000 128.19999695 10.55325413 -137.48716736 -835.29316998 0 -1 -4 
308 7 1 -1.00000000 129.10000610 7.78390026 -134.82476044 -835.35410929 0 -1 -4 
309 7 1 -1.00000000 129.10000610 6.12094164 -133.43402863 -832.28466010 0 -1 -4 
310 7 1 -1.00000000 129.10000610 3.58872485 -130.52770996 -831.04426527 0 -1 -4 
311 7 2 1.00000000 128.19999695 4.68527174 -126.74216461 -831.48900914 0 -1 -4 
312 7 1 -1.00000000 129.10000610 6.72872496 -125.74242401 -828.58383483 0 -1 -4 
313 7 1 -1.00000000 129.10000610 8.36962700 -123.89127350 -826.06278181 0 -1 -4 
314 7 1 -1.00000000 129.10000610 11.15983295 -124.13448334 -823.59581232 0 -1 -4 
315 7 2 1.00000000 128.19999695 12.98707771 -120.63374329 -824.17697573 0 -1 -4 
316 7 2 1.00000000 128.19999695 12.92619133 -119.92528534 -820.22407627 0 -1 -4 
317 7 1 -1.00000000 129.10000610 14.64159775 -118.58406067 -817.26869488 0 -1 -4 
318 7 1 -1.00000000 129.10000610 14.39056587 -117.50693512 -813.80720711 0 -1 -4 
319 7 2 1.00000000 128.19999695 13.71755791 -118.95629120 -810.47901535 0 -1 -4 
320 7 1 -1.00000000 129.10000610 11.97118378 -120.91282654 -807.57864952 0 -1 -4 
321 7 1 -1.00000000 129.10000610 9.60549068 -118.01448059 -806.39688110 0 -1 -4 
322 7 1 -1.00000000 129.10000610 6.07201815 -118.16114044 -805.05684090 0 -1 -4 
323 7 2 1.00000000 128.19999695 4.11368847 -116.44773102 -808.13769531 0 -1 -4 
324 7 1 -1.00000000 129.10000610 1.15203214 -115.07799530 -806.95457840 0 -1 -4 
325 7 1 -1.00000000 129.10000610 -0.30199015 -111.60609436 -806.67631340 0 -1 -4 
326 7 2 1.00000000 128.19999695 -0.67364770 -108.10328674 -807.67613411 0 -1 -4 
327 7 2 1.00000000 128.19999695 -3.70904851 -106.81605530 -809.97986221 0 -1 -4 
328 7 2 1.00000000 128.19999695 -3.41726089 -105.58861542 -813.38772011 0 -1 -4 
329 7 2 1.00000000 128.19999695 -2.14430666 -101.80096436 -813.71618652 0 0 -4 
330 7 2 1.00000000 128.19999695 -1.32886171 -98.96520996 -811.13860703 0 0 -4 
331 7 1 -1.00000000 129.10000610 -3.88939762 -96.06982422 -811.07776260 0 0 -4 
332 7 1 -1.00000000 129.10000610 -5.20370674 -95.79512787 -814.76793003 0 0 -4 
333 7 1 -1.00000000 129.10000610 -6.98530293 -98.41441345 -816.66544914 0 0 -4 
334 7 2 1.00000000 128.19999695 -10.59615612 -98.27098083 -818.25935555 0 0 -4 
335 7 2 1.00000000 128.19999695 -13.74170113 -96.33743286 -818.06958485 0 0 -4 
336 7 2 1.00000000 128.19999695 -17.08694077 -96.93623352 -819.82813263 0 0 -4 
337 7 1 -1.00000000 129.10000610 -16.99307060 -96.00341034 -823.59771538 0 0 -4 
338 7 2 1.00000000 128.19999695 -19.32898903 -97.90056610 -825.93639445 0 0 -4 
339 7 1 -1.00000000 129.10000610 -21.65313530 -100.71978760 -825.65315843 0 0 -4 
340 7 1 -1.00000000 129.10000610 -22.61935997 -103.09133148 -822.60110140 0 0 -4 
341 7 1 -1.00000000 129.10000610 -19.72388458 -103.01187134 -820.08809948 0 0 -4 
342 7 2 1.00000000 128.19999695 -18.40968132 -104.14575958 -816.78129387 0 -1 -4 
343 7 1 -1.00000000 129.10000610 -17.06620789 -103.41388702 -813.17706490 0 0 -4 
344 7 2 1.00000000 128.19999695 -18.74767685 -105.46565247 -810.62030411 0 -1 -4 
345 7 2 1.00000000 128.19999695 -17.24508667 -108.59271240 -809.46444130 0 -1 -4 
346 7 2 1.00000000 128.19999695 -16.39760590 -111.50245667 -806.97951317 0 -1 -4 
347 7 1 -1.00000000 129.10000610 -17.71896935 -114.66415405 -805.16739845 0 -1 -4 
348 7 2 1.00000000 128.19999695 -17.20480156 -118.38909912 -804.03742409 0 -1 -4 
349 7 1 -1.00000000 129.10000610 -13.74636936 -119.73101044 -802.39738846 0 -1 -4 
350 7 2 1.00000000 128.19999695 -13.39912891 -119.46434784 -798.86193657 0 -1 -4 
351 8 2 1.00000000 128.19999695 42.48899841 -197.18518353 604.89436340 0 -1 3 
352 8 1 -1.00000000 129.10000610 42.76833344 -200.35768557 605.52344894 0 -1 3 
353 8 2 1.00000000 128.19999695 42.50285339 -204.17595768 605.03377914 0 -1 3 
354 8 2 1.00000000 128.19999695 39.82204819 -206.68240607 606.63286877 0 -1 3 
355 8 2 1.00000000 128.19999695 36.58623505 -205.02310514 606.92783070 0 -1 3 
356 8 1 -1.00000000 129.10000610 33.61927032 -204.27145076 604.43162537 0 -1 3 
357 8 2 1.00000000 128.19999695 32.60703659 -204.81834555 600.89133835 0 -1 3 
358 8 1 -1.00000000 129.10000610 33.44744492 -205.49945116 597.33676910 0 -1 3 
359 8 1 -1.00000000 129.10000610 35.96127701 -206.03246605 594.37356949 0 -1 3 
360 8 1 -1.00000000 129.10000610 39.86458969 -205.68553877 593.91322708 0 -1 3 
361 8 2 1.00000000 128.19999695 40.57893753 -202.22725439 594.85987473 0 -1 3 
362 8 1 -1.00000000 129.10000610 42.30754852 -198.73845863 594.72265434 0 -1 3 
363 8 1 -1.00000000 129.10000610 43.18312836 -195.40394592 596.06887817 0 -1 3 
364 8 1 -1.00000000 129.10000610 44.01483536 -192.79651260 598.73585129 0 -1 3 
365 8 2 1.00000000 128.19999695 48.05073166 -192.47994900 599.28849411 0 -1 3 
366 8 2 1.00000000 128.19999695 51.05984497 -194.53292370 598.69297218 0 -1 3 
367 8 1 -1.00000000 129.10000610 53.95796204 -197.11680031 598.18241501 0 -1 3 
368 8 1 -1.00000000 129.10000610 56.62012863 -195.73810482 600.69470406 0 -1 3 