ITEM: TIMESTEP
41650000 
ITEM: NUMBER OF ATOMS 
25000 
ITEM: BOX BOUNDS pp pp pp 
-103.678017 103.678017 
-103.678017 103.678017 
-103.678017 103.678017 
ITEM: ATOMS id mol type q mass xu yu zu ix iy iz 
1 1 2 1.00000000 128.19999695 435.18733597 6.86731625 -196.55306625 2 0 -1 
2 1 1 -1.00000000 129.10000610 436.99143028 9.10938454 -199.24933910 2 0 -1 
3 1 2 1.00000000 128.19999695 439.18777657 6.95760345 -202.02251101 2 0 -1 
4 1 2 1.00000000 128.19999695 439.21978378 4.25425720 -205.21142912 2 0 -1 
5 1 2 1.00000000 128.19999695 437.26999664 2.62929201 -207.86205441 2 0 -1 
6 1 1 -1.00000000 129.10000610 433.99214935 4.06316185 -209.06713116 2 0 -1 
7 1 2 1.00000000 128.19999695 433.96396255 6.02120781 -212.24209118 2 0 -1 
8 1 1 -1.00000000 129.10000610 434.09764481 3.82325506 -215.34297848 2 0 -1 
9 1 1 -1.00000000 129.10000610 431.27747154 2.57914352 -217.23785496 2 0 -1 
10 1 1 -1.00000000 129.10000610 430.05836487 1.47299385 -220.53211498 2 0 -1 
11 1 2 1.00000000 128.19999695 432.45814133 1.88163745 -223.06357384 2 0 -1 
12 1 1 -1.00000000 129.10000610 430.48107338 2.12099886 -226.53678513 2 0 -1 
13 1 1 -1.00000000 129.10000610 431.17069054 1.64778662 -230.29941177 2 0 -1 
14 1 1 -1.00000000 129.10000610 432.96368408 0.16979732 -233.23323631 2 0 -1 
15 1 2 1.00000000 128.19999695 433.48151207 1.97031331 -236.69109344 2 0 -1 
16 1 2 1.00000000 128.19999695 436.75993919 1.59361470 -238.45542145 2 0 -1 
17 1 1 -1.00000000 129.10000610 439.54587364 3.20022035 -236.15350914 2 0 -1 
18 1 1 -1.00000000 129.10000610 443.08842468 1.19555473 -236.10945511 2 0 -1 
19 1 2 1.00000000 128.19999695 446.33672523 1.29766905 -233.99624634 2 0 -1 
20 1 1 -1.00000000 129.10000610 448.79043961 2.74211645 -231.65517235 2 0 -1 
21 1 1 -1.00000000 129.10000610 452.55514526 2.45333838 -232.60106087 2 0 -1 
22 1 1 -1.00000000 129.10000610 455.86769104 2.03979540 -234.32173538 2 0 -1 
23 1 2 1.00000000 128.19999695 457.62620163 0.63585949 -237.33207703 2 0 -1 
24 1 1 -1.00000000 129.10000610 457.82640076 -0.39060724 -240.69007874 2 0 -1 
25 1 1 -1.00000000 129.10000610 457.11810303 -2.05663228 -243.94498444 2 0 -1 
26 1 2 1.00000000 128.19999695 459.38290024 -3.46773243 -246.56019592 2 0 -1 
27 1 2 1.00000000 128.19999695 462.61759186 -5.59805250 -245.69007111 2 0 -1 
28 1 2 1.00000000 128.19999695 463.76052475 -6.97701073 -242.33619690 2 0 -1 
29 1 2 1.00000000 128.19999695 466.76742935 -9.68422985 -241.55362701 2 0 -1 
30 1 2 1.00000000 128.19999695 470.20710373 -7.77503157 -242.30121613 2 0 -1 
31 1 1 -1.00000000 129.10000610 473.25875473 -8.14744186 -244.58182526 2 0 -1 
32 1 1 -1.00000000 129.10000610 474.85746384 -11.77422333 -243.98758698 2 0 -1 
33 1 1 -1.00000000 129.10000610 478.59263611 -10.98075294 -243.05479813 2 0 -1 
34 1 2 1.00000000 128.19999695 480.68140411 -8.23355484 -244.82686234 2 0 -1 
35 1 2 1.00000000 128.19999695 483.32590485 -7.60187149 -247.59427261 2 0 -1 
36 1 2 1.00000000 128.19999695 482.91225433 -7.69979477 -251.37913895 2 0 -1 
37 1 1 -1.00000000 129.10000610 479.26763153 -6.19264650 -251.57426071 2 0 -1 
38 1 2 1.00000000 128.19999695 476.98859024 -2.95204949 -251.99316788 2 0 -1 
39 1 1 -1.00000000 129.10000610 474.91968536 0.37685072 -251.66230774 2 0 -1 
40 1 1 -1.00000000 129.10000610 472.31334305 -0.60359597 -254.22904205 2 0 -1 
41 1 1 -1.00000000 129.10000610 472.78662872 0.10101701 -258.06379700 2 0 -1 
42 1 2 1.00000000 128.19999695 476.02336502 1.86806524 -259.74885941 2 0 -1 
43 1 1 -1.00000000 129.10000610 476.39468002 3.28023314 -263.09646225 2 0 -1 
44 1 2 1.00000000 128.19999695 476.92836380 2.16393971 -266.92991257 2 0 -1 
45 1 2 1.00000000 128.19999695 475.59723282 0.61934990 -269.70256042 2 0 -1 
46 1 2 1.00000000 128.19999695 474.00496292 2.36831880 -273.26203156 2 0 -1 
47 1 1 -1.00000000 129.10000610 475.34084702 0.38504955 -276.18867493 2 0 -1 
48 1 2 1.00000000 128.19999695 474.28230286 -0.43624485 -279.71799469 2 0 -1 
49 1 1 -1.00000000 129.10000610 473.79788971 0.17540978 -283.58483887 2 0 -1 
50 1 2 1.00000000 128.19999695 476.38271713 0.84619248 -286.11372375 2 0 -1 
51 2 2 1.00000000 128.19999695 434.07672882 383.98148537 -307.39160919 2 2 -1 
52 2 1 -1.00000000 129.10000610 435.04120064 382.70024872 -311.13783264 2 2 -2 
53 2 2 1.00000000 128.19999695 432.58142853 381.55994034 -314.18827057 2 2 -2 
54 2 2 1.00000000 128.19999695 429.31686592 379.33598328 -314.18292236 2 2 -2 
55 2 2 1.00000000 128.19999695 428.99395561 376.56311035 -312.05233002 2 2 -2 
56 2 1 -1.00000000 129.10000610 427.40442181 374.49584198 -309.27468872 2 2 -1 
57 2 2 1.00000000 128.19999695 425.54531860 370.97257996 -309.37217712 2 2 -1 
58 2 1 -1.00000000 129.10000610 424.97171211 367.29830170 -308.64691162 2 2 -1 
59 2 1 -1.00000000 129.10000610 427.22502041 364.30467224 -308.76313782 2 2 -1 
60 2 1 -1.00000000 129.10000610 430.51748276 364.20793533 -307.18458557 2 2 -1 
61 2 2 1.00000000 128.19999695 434.07312393 363.11820221 -306.25413513 2 2 -1 
62 2 1 -1.00000000 129.10000610 436.92065239 363.15586090 -303.97046661 2 2 -1 
63 2 1 -1.00000000 129.10000610 440.57983017 363.63932037 -304.10659790 2 2 -1 
64 2 1 -1.00000000 129.10000610 442.80042076 360.30211639 -304.87191772 2 2 -1 
65 2 2 1.00000000 128.19999695 445.12234879 359.76303864 -302.09783173 2 2 -1 
66 2 2 1.00000000 128.19999695 446.88322449 362.62656784 -300.99004364 2 2 -1 
67 2 1 -1.00000000 129.10000610 448.12795258 363.92766953 -304.33533478 2 2 -1 
68 2 1 -1.00000000 129.10000610 450.95708084 366.09620667 -306.05850220 2 2 -1 
69 2 2 1.00000000 128.19999695 451.66849899 366.66649246 -310.08786774 2 2 -1 
70 2 1 -1.00000000 129.10000610 455.12500000 366.79479980 -311.44038391 2 2 -2 
71 2 1 -1.00000000 129.10000610 456.40613937 363.18253326 -310.55393219 2 2 -1 
72 2 1 -1.00000000 129.10000610 458.86180115 359.95351410 -310.62889862 2 2 -1 
73 2 2 1.00000000 128.19999695 462.33709717 359.65909576 -312.46391296 2 2 -2 
74 2 1 -1.00000000 129.10000610 464.18470001 362.90361023 -312.33414459 2 2 -2 
75 2 1 -1.00000000 129.10000610 464.22467422 366.67980957 -311.93947601 2 2 -2 
76 2 2 1.00000000 128.19999695 465.59387970 368.48879242 -314.99347687 2 2 -2 
77 2 2 1.00000000 128.19999695 468.78240585 370.41832352 -316.16402435 2 2 -2 
78 2 2 1.00000000 128.19999695 471.95728683 369.06169128 -314.02410889 2 2 -2 
79 2 2 1.00000000 128.19999695 471.04425812 367.43038559 -310.57701874 2 2 -1 
80 2 2 1.00000000 128.19999695 470.99972534 368.78374481 -307.10561371 2 2 -1 
81 2 1 -1.00000000 129.10000610 468.64994049 371.39560318 -305.35870361 2 2 -1 
82 2 1 -1.00000000 129.10000610 465.37913513 372.66458893 -306.82758331 2 2 -1 
83 2 1 -1.00000000 129.10000610 464.17099762 375.49218750 -305.06793976 2 2 -1 
84 2 2 1.00000000 128.19999695 463.11422348 376.45236588 -301.46926880 2 2 -1 
85 2 2 1.00000000 128.19999695 463.71388626 379.86750031 -299.67098999 2 2 -1 
86 2 2 1.00000000 128.19999695 461.03197098 382.67955399 -299.62094116 2 2 -1 
87 2 1 -1.00000000 129.10000610 457.92000961 382.16996765 -297.81258392 2 2 -1 
88 2 2 1.00000000 128.19999695 454.91941071 380.61837387 -295.73872375 2 2 -1 
89 2 1 -1.00000000 129.10000610 451.52170181 380.34649277 -297.40172577 2 2 -1 
90 2 1 -1.00000000 129.10000610 451.14477158 383.71238708 -299.62274170 2 2 -1 
91 2 1 -1.00000000 129.10000610 453.38307190 386.76014328 -300.73955536 2 2 -1 
92 2 2 1.00000000 128.19999695 456.28502274 387.95455933 -303.34594727 2 2 -1 
93 2 1 -1.00000000 129.10000610 456.60861206 391.64498138 -302.47084808 2 2 -1 
94 2 2 1.00000000 128.19999695 456.95451736 394.07644844 -299.15571594 2 2 -1 
95 2 2 1.00000000 128.19999695 458.91342545 396.09083557 -296.97792816 2 2 -1 
96 2 2 1.00000000 128.19999695 460.06180573 396.90592766 -293.22274780 2 2 -1 
97 2 1 -1.00000000 129.10000610 460.97063065 400.69648457 -292.37786102 2 2 -1 
98 2 2 1.00000000 128.19999695 462.62768173 402.84865093 -294.96673584 2 2 -1 
99 2 1 -1.00000000 129.10000610 464.24782562 402.44386005 -298.82101440 2 2 -1 
100 2 2 1.00000000 128.19999695 464.82878113 402.12864590 -302.42314911 2 2 -1 
101 3 2 1.00000000 128.19999695 269.07294464 -97.10514832 84.96675110 1 0 0 
102 3 1 -1.00000000 129.10000610 271.37203217 -99.99143982 86.30954742 1 0 0 
103 3 2 1.00000000 128.19999695 273.63164520 -100.35897064 89.47550964 1 0 0 
104 3 2 1.00000000 128.19999695 274.77617645 -102.29503632 92.20093536 1 0 0 
105 3 2 1.00000000 128.19999695 276.62478638 -102.80500031 95.09209442 1 0 0 
106 3 1 -1.00000000 129.10000610 278.18212891 -100.53838348 97.84957886 1 0 0 
107 3 2 1.00000000 128.19999695 278.60750580 -97.06819916 95.54547882 1 0 0 
108 3 1 -1.00000000 129.10000610 280.75057220 -98.42778015 92.67533112 1 0 0 
109 3 1 -1.00000000 129.10000610 283.94748688 -96.67539215 92.18512726 1 0 0 
110 3 1 -1.00000000 129.10000610 286.70094299 -95.86776733 94.96059418 1 0 0 
111 3 2 1.00000000 128.19999695 289.66046143 -97.52256775 93.04741669 1 0 0 
112 3 1 -1.00000000 129.10000610 292.52005768 -99.21458435 95.13865662 1 0 0 
113 3 1 -1.00000000 129.10000610 294.79344177 -101.27323151 97.15334320 1 0 0 
114 3 1 -1.00000000 129.10000610 298.14456940 -102.77852631 95.81093597 1 0 0 
115 3 2 1.00000000 128.19999695 300.78090668 -99.95491028 95.22520447 1 0 0 
116 3 2 1.00000000 128.19999695 304.10308838 -101.94034576 96.71683502 1 0 0 
117 3 1 -1.00000000 129.10000610 307.62648010 -101.20476532 97.75216675 1 0 0 
118 3 1 -1.00000000 129.10000610 309.68072510 -102.27735901 94.46496582 1 0 0 
119 3 2 1.00000000 128.19999695 313.51201630 -101.16558838 95.21778107 2 0 0 
120 3 1 -1.00000000 129.10000610 317.09013367 -99.40833282 95.90961456 2 0 0 
121 3 1 -1.00000000 129.10000610 317.70732117 -95.72296906 95.18917847 2 0 0 
122 3 1 -1.00000000 129.10000610 318.85326385 -92.27732849 94.35636139 2 0 0 
123 3 2 1.00000000 128.19999695 321.84867859 -90.71710205 92.63243103 2 0 0 
124 3 1 -1.00000000 129.10000610 324.13546753 -88.09072876 90.62056732 2 0 0 
125 3 1 -1.00000000 129.10000610 321.74146271 -85.37464142 89.48905182 2 0 0 
126 3 2 1.00000000 128.19999695 322.29941559 -82.37516022 92.05254364 2 0 0 
127 3 2 1.00000000 128.19999695 320.75838470 -82.07169342 95.47128296 2 0 0 
128 3 2 1.00000000 128.19999695 316.89781189 -82.41230774 95.53760529 2 0 0 
129 3 2 1.00000000 128.19999695 314.28653717 -85.27555847 94.80507660 2 0 0 
130 3 2 1.00000000 128.19999695 312.78846741 -86.19429016 91.68508148 2 0 0 
131 3 1 -1.00000000 129.10000610 311.26766205 -87.59007263 88.78683472 2 0 0 
132 3 1 -1.00000000 129.10000610 309.50460815 -91.06269836 89.89102936 1 0 0 
133 3 1 -1.00000000 129.10000610 309.15951538 -94.22608948 87.81505585 1 0 0 
134 3 2 1.00000000 128.19999695 311.73507690 -97.33555603 87.82998657 2 0 0 
135 3 2 1.00000000 128.19999695 310.09230804 -99.85243988 85.38175201 1 0 0 
136 3 2 1.00000000 128.19999695 309.20736694 -98.47658539 81.62879181 1 0 0 
137 3 1 -1.00000000 129.10000610 306.35327911 -100.03543091 79.73574829 1 0 0 
138 3 2 1.00000000 128.19999695 303.66351318 -101.49813080 81.21897125 1 0 0 
139 3 1 -1.00000000 129.10000610 300.90111542 -100.88542938 83.69935608 1 0 0 
140 3 1 -1.00000000 129.10000610 299.55854034 -103.29957581 86.12599945 1 0 0 
141 3 1 -1.00000000 129.10000610 297.34258270 -103.33454895 89.21447754 1 0 0 
142 3 2 1.00000000 128.19999695 295.21927643 -99.95663452 89.19558716 1 0 0 
143 3 1 -1.00000000 129.10000610 294.41935730 -96.25859070 88.50339508 1 0 0 
144 3 2 1.00000000 128.19999695 292.02472687 -95.36594391 85.75254822 1 0 0 
145 3 2 1.00000000 128.19999695 288.92359161 -97.51983643 85.94603729 1 0 0 
146 3 2 1.00000000 128.19999695 287.41744995 -100.97611237 87.02887726 1 0 0 
147 3 1 -1.00000000 129.10000610 285.75955200 -101.97266388 89.97985840 1 0 0 
148 3 2 1.00000000 128.19999695 284.07705688 -104.83326721 92.28488159 1 -1 0 
149 3 1 -1.00000000 129.10000610 287.20368195 -106.71466827 93.36619568 1 -1 0 
150 3 2 1.00000000 128.19999695 289.71302032 -107.20809937 96.37292480 1 -1 0 
151 4 2 1.00000000 128.19999695 -235.44140053 352.62678146 56.61069870 -1 2 0 
152 4 1 -1.00000000 129.10000610 -233.95280075 355.90070343 56.73386002 -1 2 0 
153 4 2 1.00000000 128.19999695 -232.97696877 359.18473434 56.07110977 -1 2 0 
154 4 2 1.00000000 128.19999695 -230.01835442 360.14047623 58.02954865 -1 2 0 
155 4 2 1.00000000 128.19999695 -226.52750969 361.23127365 56.66975403 -1 2 0 
156 4 1 -1.00000000 129.10000610 -224.30795097 364.32315445 57.44413376 -1 2 0 
157 4 2 1.00000000 128.19999695 -222.12254047 367.66813278 58.24654770 -1 2 0 
158 4 1 -1.00000000 129.10000610 -221.99002266 370.94686127 59.66897583 -1 2 0 
159 4 1 -1.00000000 129.10000610 -225.22409821 370.94264221 61.64099121 -1 2 0 
160 4 1 -1.00000000 129.10000610 -228.18074799 368.76374817 63.12457657 -1 2 0 
161 4 2 1.00000000 128.19999695 -229.35388756 367.11025620 66.74093628 -1 2 0 
162 4 1 -1.00000000 129.10000610 -231.66080284 367.24954224 69.85087585 -1 2 0 
163 4 1 -1.00000000 129.10000610 -235.13301849 368.41798019 68.28379822 -1 2 0 
164 4 1 -1.00000000 129.10000610 -238.42486954 366.69711685 69.48287964 -1 2 0 
165 4 2 1.00000000 128.19999695 -241.96126938 367.52254105 69.39206696 -1 2 0 
166 4 2 1.00000000 128.19999695 -245.84659195 367.14688492 69.36208344 -1 2 0 
167 4 1 -1.00000000 129.10000610 -248.33610916 364.48231125 70.18248749 -1 2 0 
168 4 1 -1.00000000 129.10000610 -250.73171234 364.95347595 66.98410034 -1 2 0 
169 4 2 1.00000000 128.19999695 -253.93937302 364.04503250 68.81772614 -1 2 0 
170 4 1 -1.00000000 129.10000610 -257.19589615 366.28809738 68.84764862 -1 2 0 
171 4 1 -1.00000000 129.10000610 -260.08333206 367.47582245 66.52227783 -1 2 0 
172 4 1 -1.00000000 129.10000610 -261.50389481 371.07721329 66.39019775 -1 2 0 
173 4 2 1.00000000 128.19999695 -264.96132660 371.72215652 64.72565460 -1 2 0 
174 4 1 -1.00000000 129.10000610 -266.95588684 372.28500366 61.43379974 -1 2 0 
175 4 1 -1.00000000 129.10000610 -266.15532684 375.82592392 60.73006821 -1 2 0 
176 4 2 1.00000000 128.19999695 -263.06272125 376.80099869 58.56696701 -1 2 0 
177 4 2 1.00000000 128.19999695 -259.48606873 378.28775787 58.67658615 -1 2 0 
178 4 2 1.00000000 128.19999695 -257.48630905 378.53540421 62.01713181 -1 2 0 
179 4 2 1.00000000 128.19999695 -254.63755417 375.94132233 62.12430191 -1 2 0 
180 4 2 1.00000000 128.19999695 -252.49534225 374.95602036 58.95863724 -1 2 0 
181 4 1 -1.00000000 129.10000610 -253.87952423 374.94448090 55.39547348 -1 2 0 
182 4 1 -1.00000000 129.10000610 -252.94127655 373.60309982 52.17423630 -1 2 0 
183 4 1 -1.00000000 129.10000610 -251.85714340 375.92441940 49.19202805 -1 2 0 
184 4 2 1.00000000 128.19999695 -250.81476974 378.97335434 46.93223953 -1 2 0 
185 4 2 1.00000000 128.19999695 -251.34230042 382.13132858 48.50030518 -1 2 0 
186 4 2 1.00000000 128.19999695 -252.87396240 382.49650192 52.19549942 -1 2 0 
187 4 1 -1.00000000 129.10000610 -253.04294968 381.61100769 56.11698532 -1 2 0 
188 4 2 1.00000000 128.19999695 -249.36974335 380.73305130 56.43624115 -1 2 0 
189 4 1 -1.00000000 129.10000610 -247.61546707 377.95972824 58.06886673 -1 2 0 
190 4 1 -1.00000000 129.10000610 -246.28978729 377.34916306 61.73368073 -1 2 0 
191 4 1 -1.00000000 129.10000610 -243.58125687 380.37718964 62.17036819 -1 2 0 
192 4 2 1.00000000 128.19999695 -243.08416748 384.05144691 61.06536102 -1 2 0 
193 4 1 -1.00000000 129.10000610 -239.66605377 385.29216766 59.30170441 -1 2 0 
194 4 2 1.00000000 128.19999695 -236.39800835 386.59601784 57.68950653 -1 2 0 
195 4 2 1.00000000 128.19999695 -233.39633560 384.88402557 58.97223282 -1 2 0 
196 4 2 1.00000000 128.19999695 -230.10100174 383.71440506 58.58211136 -1 2 0 
197 4 1 -1.00000000 129.10000610 -228.72841644 380.78475952 60.37048340 -1 2 0 
198 4 2 1.00000000 128.19999695 -226.00398636 378.64602661 61.21031952 -1 2 0 
199 4 1 -1.00000000 129.10000610 -223.17120743 378.22135925 63.75208282 -1 2 0 
200 4 2 1.00000000 128.19999695 -219.79735756 379.03483582 65.42385864 -1 2 0 
201 5 2 1.00000000 128.19999695 -314.45523834 -230.18391418 -260.34386826 -2 -1 -1 
202 5 1 -1.00000000 129.10000610 -313.51399231 -229.23574829 -256.78432846 -2 -1 -1 
203 5 2 1.00000000 128.19999695 -313.17597198 -230.46787643 -253.31106186 -2 -1 -1 
204 5 2 1.00000000 128.19999695 -310.85336304 -232.43176842 -251.75460052 -1 -1 -1 
205 5 2 1.00000000 128.19999695 -307.16801453 -233.68259239 -252.38813782 -1 -1 -1 
206 5 1 -1.00000000 129.10000610 -303.92097473 -231.75358009 -254.03273010 -1 -1 -1 
207 5 2 1.00000000 128.19999695 -304.15289307 -228.94906044 -256.30709457 -1 -1 -1 
208 5 1 -1.00000000 129.10000610 -306.05145264 -228.00501060 -259.54351807 -1 -1 -1 
209 5 1 -1.00000000 129.10000610 -307.70130920 -230.40423775 -262.26410294 -1 -1 -1 
210 5 1 -1.00000000 129.10000610 -308.94709015 -233.83148956 -261.97463226 -1 -1 -1 
211 5 2 1.00000000 128.19999695 -309.24712372 -237.16474724 -260.28255081 -1 -1 -1 
212 5 1 -1.00000000 129.10000610 -307.77294922 -240.08364868 -261.57443619 -1 -1 -1 
213 5 1 -1.00000000 129.10000610 -307.11932373 -240.78379440 -265.33638382 -1 -1 -1 
214 5 1 -1.00000000 129.10000610 -310.23247528 -241.79847336 -267.37176132 -1 -1 -1 
215 5 2 1.00000000 128.19999695 -313.79897308 -241.87366486 -267.94322205 -2 -1 -1 
216 5 2 1.00000000 128.19999695 -317.08987427 -243.17670059 -266.28825760 -2 -1 -1 
217 5 1 -1.00000000 129.10000610 -319.46958160 -240.34107590 -264.73155212 -2 -1 -1 
218 5 1 -1.00000000 129.10000610 -321.79625702 -237.91622353 -262.87278748 -2 -1 -1 
219 5 2 1.00000000 128.19999695 -324.17653656 -235.18231583 -264.48252106 -2 -1 -1 
220 5 1 -1.00000000 129.10000610 -323.45053864 -234.17962646 -268.17432785 -2 -1 -1 
221 5 1 -1.00000000 129.10000610 -323.13575745 -231.09934616 -270.04397964 -2 -1 -1 
222 5 1 -1.00000000 129.10000610 -323.97774506 -230.75584793 -274.09727478 -2 -1 -1 
223 5 2 1.00000000 128.19999695 -321.53216553 -233.48330498 -275.79274750 -2 -1 -1 
224 5 1 -1.00000000 129.10000610 -320.34983826 -233.62331390 -279.08443451 -2 -1 -1 
225 5 1 -1.00000000 129.10000610 -317.60364532 -231.68762970 -279.47776794 -2 -1 -1 
226 5 2 1.00000000 128.19999695 -315.09292603 -231.35421371 -282.21315002 -2 -1 -1 
227 5 2 1.00000000 128.19999695 -316.99922180 -233.10970688 -284.82408142 -2 -1 -1 
228 5 2 1.00000000 128.19999695 -319.74375916 -230.91082382 -287.10655212 -2 -1 -1 
229 5 2 1.00000000 128.19999695 -322.98174286 -232.91088104 -286.81811523 -2 -1 -1 
230 5 2 1.00000000 128.19999695 -324.45108032 -234.98235703 -284.04013062 -2 -1 -1 
231 5 1 -1.00000000 129.10000610 -323.56858826 -238.27346802 -282.20540619 -2 -1 -1 
232 5 1 -1.00000000 129.10000610 -320.55245972 -240.07076645 -280.67562866 -2 -1 -1 
233 5 1 -1.00000000 129.10000610 -317.35734558 -242.13765335 -280.52688599 -2 -1 -1 
234 5 2 1.00000000 128.19999695 -316.40377808 -245.03140259 -283.10349274 -2 -1 -1 
235 5 2 1.00000000 128.19999695 -316.72595978 -248.49317932 -284.46446228 -2 -1 -1 
236 5 2 1.00000000 128.19999695 -317.47811127 -249.70371628 -287.75733185 -2 -1 -1 
237 5 1 -1.00000000 129.10000610 -317.01826477 -252.55586243 -290.14588928 -2 -1 -1 
238 5 2 1.00000000 128.19999695 -316.89093781 -254.24144363 -293.67379761 -2 -1 -1 
239 5 1 -1.00000000 129.10000610 -317.22515869 -258.06331635 -293.02739716 -2 -1 -1 
240 5 1 -1.00000000 129.10000610 -318.02539062 -260.96466446 -290.72492218 -2 -1 -1 
241 5 1 -1.00000000 129.10000610 -318.25229645 -260.22056580 -287.06101227 -2 -1 -1 
242 5 2 1.00000000 128.19999695 -320.73120117 -260.67750931 -284.33538818 -2 -1 -1 
243 5 1 -1.00000000 129.10000610 -318.57437897 -259.77519226 -280.95429993 -2 -1 -1 
244 5 2 1.00000000 128.19999695 -315.68687439 -261.57999039 -279.03416443 -2 -1 -1 
245 5 2 1.00000000 128.19999695 -312.82460785 -261.63583374 -276.49758911 -2 -1 -1 
246 5 2 1.00000000 128.19999695 -309.59613037 -262.14117813 -275.21108246 -1 -1 -1 
247 5 1 -1.00000000 129.10000610 -306.37186432 -263.50479507 -273.43447113 -1 -1 -1 
248 5 2 1.00000000 128.19999695 -303.21344757 -261.68110657 -274.82895660 -1 -1 -1 
249 5 1 -1.00000000 129.10000610 -302.89765167 -258.30401993 -276.01696014 -1 -1 -1 
250 5 2 1.00000000 128.19999695 -304.14469910 -255.80417633 -278.66555023 -1 -1 -1 
251 6 2 1.00000000 128.19999695 444.99235153 -359.08023071 -54.17059708 2 -2 0 
252 6 1 -1.00000000 129.10000610 441.41422462 -359.12061310 -53.85940170 2 -2 0 
253 6 2 1.00000000 128.19999695 438.68832207 -361.72996902 -54.08738327 2 -2 0 
254 6 2 1.00000000 128.19999695 435.28709602 -363.29096222 -55.03649521 2 -2 0 
255 6 2 1.00000000 128.19999695 431.53064728 -363.95874023 -55.34531403 2 -2 0 
256 6 1 -1.00000000 129.10000610 429.69837952 -360.37919998 -55.73109436 2 -2 0 
257 6 2 1.00000000 128.19999695 429.82183456 -358.59707642 -58.86362457 2 -2 0 
258 6 1 -1.00000000 129.10000610 427.01336765 -356.51949310 -60.35794830 2 -2 0 
259 6 1 -1.00000000 129.10000610 425.06691647 -354.51862717 -57.98937988 2 -2 0 
260 6 1 -1.00000000 129.10000610 423.95149612 -355.52382660 -54.46002960 2 -2 0 
261 6 2 1.00000000 128.19999695 420.67319155 -355.95781326 -52.36479568 2 -2 0 
262 6 1 -1.00000000 129.10000610 419.02561092 -359.32294464 -53.45418930 2 -2 0 
263 6 1 -1.00000000 129.10000610 418.01478720 -362.32350159 -51.13600922 2 -2 0 
264 6 1 -1.00000000 129.10000610 419.90930510 -365.28744507 -52.22322083 2 -2 0 
265 6 2 1.00000000 128.19999695 417.97527146 -367.63938522 -54.72583008 2 -2 0 
266 6 2 1.00000000 128.19999695 414.36173794 -368.50733948 -54.51523590 2 -2 0 
267 6 1 -1.00000000 129.10000610 410.42984390 -367.40842056 -53.87204361 2 -2 0 
268 6 1 -1.00000000 129.10000610 408.99589491 -366.91526794 -57.46603775 2 -2 0 
269 6 2 1.00000000 128.19999695 405.93365097 -367.40586853 -59.80823517 2 -2 0 
270 6 1 -1.00000000 129.10000610 402.99724483 -370.18562698 -59.48275757 2 -2 0 
271 6 1 -1.00000000 129.10000610 404.71704674 -373.57121277 -59.70803070 2 -2 0 
272 6 1 -1.00000000 129.10000610 405.22268391 -377.18746185 -59.15139389 2 -2 0 
273 6 2 1.00000000 128.19999695 408.08367109 -379.59894943 -58.11194229 2 -2 0 
274 6 1 -1.00000000 129.10000610 408.21953773 -380.28074265 -54.35257339 2 -2 0 
275 6 1 -1.00000000 129.10000610 405.25959206 -378.16858673 -52.26891327 2 -2 0 
276 6 2 1.00000000 128.19999695 405.61973381 -376.18004990 -49.08708572 2 -2 0 
277 6 2 1.00000000 128.19999695 406.35573006 -375.57110977 -45.17901993 2 -2 0 
278 6 2 1.00000000 128.19999695 404.71626091 -372.60206604 -43.24336624 2 -2 0 
279 6 2 1.00000000 128.19999695 405.66136074 -368.80867004 -43.36944962 2 -2 0 
280 6 2 1.00000000 128.19999695 403.99644470 -365.44923401 -42.84666443 2 -2 0 
281 6 1 -1.00000000 129.10000610 401.46097183 -362.75683975 -41.26816940 2 -2 0 
282 6 1 -1.00000000 129.10000610 401.73915291 -363.56504822 -37.42955780 2 -2 0 
283 6 1 -1.00000000 129.10000610 399.75209618 -366.10861969 -35.18200684 2 -2 0 
284 6 2 1.00000000 128.19999695 396.37113953 -366.88718414 -33.41072845 2 -2 0 
285 6 2 1.00000000 128.19999695 392.51823997 -367.63536835 -32.77187729 2 -2 0 
286 6 2 1.00000000 128.19999695 389.41299438 -365.62962723 -32.40653992 2 -2 0 
287 6 1 -1.00000000 129.10000610 387.61431694 -367.02251053 -29.90922356 2 -2 0 
288 6 2 1.00000000 128.19999695 384.59481430 -366.47597504 -27.56396675 2 -2 0 
289 6 1 -1.00000000 129.10000610 381.39678192 -364.53416443 -27.07971001 2 -2 0 
290 6 1 -1.00000000 129.10000610 378.03229904 -364.97883224 -25.22483826 2 -2 0 
291 6 1 -1.00000000 129.10000610 376.16151047 -368.17527771 -24.68362427 2 -2 0 
292 6 2 1.00000000 128.19999695 373.27673721 -370.18032837 -25.74822998 2 -2 0 
293 6 1 -1.00000000 129.10000610 369.68669510 -370.29698563 -24.58510780 2 -2 0 
294 6 2 1.00000000 128.19999695 368.16277313 -372.88647461 -21.72930336 2 -2 0 
295 6 2 1.00000000 128.19999695 369.46038055 -374.66733170 -18.18194389 2 -2 0 
296 6 2 1.00000000 128.19999695 367.89993286 -375.57012939 -14.92881393 2 -2 0 
297 6 1 -1.00000000 129.10000610 367.83074188 -378.88814545 -13.09883308 2 -2 0 
298 6 2 1.00000000 128.19999695 366.60345840 -382.05363846 -11.48377228 2 -2 0 
299 6 1 -1.00000000 129.10000610 368.62755966 -384.89487457 -12.83054543 2 -2 0 
300 6 2 1.00000000 128.19999695 369.07466888 -388.58488274 -12.37091923 2 -2 0 
301 7 2 1.00000000 128.19999695 -84.26793671 -31.56951904 -867.38996124 0 0 -4 
302 7 1 -1.00000000 129.10000610 -85.09901428 -32.38834763 -870.90485382 0 0 -4 
303 7 2 1.00000000 128.19999695 -84.49192810 -33.66146088 -874.40158463 0 0 -4 
304 7 2 1.00000000 128.19999695 -81.97732544 -36.86500931 -875.29578018 0 0 -4 
305 7 2 1.00000000 128.19999695 -78.88843536 -36.33800888 -872.48643494 0 0 -4 
306 7 1 -1.00000000 129.10000610 -77.38064575 -32.97129059 -872.51161194 0 0 -4 
307 7 2 1.00000000 128.19999695 -77.56555176 -31.89365196 -876.21950150 0 0 -4 
308 7 1 -1.00000000 129.10000610 -76.58653259 -33.82654572 -879.51027679 0 0 -4 
309 7 1 -1.00000000 129.10000610 -78.78105927 -36.87880707 -880.60194397 0 0 -4 
310 7 1 -1.00000000 129.10000610 -77.62236786 -39.95575333 -881.13090897 0 0 -4 
311 7 2 1.00000000 128.19999695 -76.91925049 -43.77072906 -880.91038513 0 0 -4 
312 7 1 -1.00000000 129.10000610 -78.74391174 -45.62671661 -883.61849594 0 0 -4 
313 7 1 -1.00000000 129.10000610 -80.20236206 -44.26084137 -887.01660538 0 0 -4 
314 7 1 -1.00000000 129.10000610 -77.14101410 -43.64957809 -889.28009415 0 0 -4 
315 7 2 1.00000000 128.19999695 -73.94230652 -43.94863129 -888.13926315 0 0 -4 
316 7 2 1.00000000 128.19999695 -70.56012726 -42.31052017 -888.43535995 0 0 -4 
317 7 1 -1.00000000 129.10000610 -67.22702026 -43.76760483 -886.65779114 0 0 -4 
318 7 1 -1.00000000 129.10000610 -66.04949188 -46.20378876 -889.58557892 0 0 -4 
319 7 2 1.00000000 128.19999695 -67.87249756 -47.11955643 -892.37223053 0 0 -4 
320 7 1 -1.00000000 129.10000610 -70.21004486 -46.26769257 -894.97453308 0 0 -4 
321 7 1 -1.00000000 129.10000610 -71.61024475 -47.70805740 -898.37795258 0 0 -4 
322 7 1 -1.00000000 129.10000610 -70.08624268 -50.27375031 -900.71361542 0 0 -4 
323 7 2 1.00000000 128.19999695 -68.95937347 -53.59476471 -902.48672485 0 0 -4 
324 7 1 -1.00000000 129.10000610 -66.93968201 -56.49768066 -900.97428894 0 0 -4 
325 7 1 -1.00000000 129.10000610 -68.34131622 -60.17641830 -900.19230652 0 0 -4 
326 7 2 1.00000000 128.19999695 -65.93027496 -62.79306793 -899.16434479 0 0 -4 
327 7 2 1.00000000 128.19999695 -62.38298035 -61.61382675 -898.55712891 0 0 -4 
328 7 2 1.00000000 128.19999695 -60.02482986 -58.96783829 -899.98474121 0 0 -4 
329 7 2 1.00000000 128.19999695 -57.22114182 -56.50389862 -899.66526031 0 0 -4 
330 7 2 1.00000000 128.19999695 -55.54683304 -53.72374725 -901.58075714 0 0 -4 
331 7 1 -1.00000000 129.10000610 -54.28181076 -50.43288422 -903.11016846 0 0 -4 
332 7 1 -1.00000000 129.10000610 -52.20496368 -50.75833511 -906.33319092 0 0 -4 
333 7 1 -1.00000000 129.10000610 -48.60564804 -50.08120346 -905.13626862 0 0 -4 
334 7 2 1.00000000 128.19999695 -47.43208694 -51.04037094 -901.97974396 0 0 -4 
335 7 2 1.00000000 128.19999695 -49.60817719 -49.17761230 -899.75992584 0 0 -4 
336 7 2 1.00000000 128.19999695 -48.36251831 -45.58410645 -899.11792755 0 0 -4 
337 7 1 -1.00000000 129.10000610 -50.90104675 -43.71718979 -896.95047760 0 0 -4 
338 7 2 1.00000000 128.19999695 -51.37324524 -40.63448715 -895.01687622 0 0 -4 
339 7 1 -1.00000000 129.10000610 -54.86287689 -39.29161072 -894.95870209 0 0 -4 
340 7 1 -1.00000000 129.10000610 -54.82746887 -36.07874680 -892.55876160 0 0 -4 
341 7 1 -1.00000000 129.10000610 -54.04210663 -32.62985611 -893.34092331 0 0 -4 
342 7 2 1.00000000 128.19999695 -53.50299454 -29.14323425 -891.82492065 0 0 -4 
343 7 1 -1.00000000 129.10000610 -52.54756165 -29.15573502 -888.09447098 0 0 -4 
344 7 2 1.00000000 128.19999695 -54.01669693 -28.57564545 -884.76122665 0 0 -4 
345 7 2 1.00000000 128.19999695 -56.38628769 -27.56517029 -882.10301208 0 0 -4 
346 7 2 1.00000000 128.19999695 -57.61867905 -23.87026024 -882.50907898 0 0 -4 
347 7 1 -1.00000000 129.10000610 -61.14963531 -23.58395386 -881.21105194 0 0 -4 
348 7 2 1.00000000 128.19999695 -62.70804596 -24.36799812 -878.28799438 0 0 -4 
349 7 1 -1.00000000 129.10000610 -65.04433441 -25.80003357 -875.70579529 0 0 -4 
350 7 2 1.00000000 128.19999695 -62.93938446 -25.81522369 -872.50135803 0 0 -4 
351 8 2 1.00000000 128.19999695 82.18235779 -85.00526428 633.94023705 0 0 3 
352 8 1 -1.00000000 129.10000610 81.28471375 -83.90794373 637.52679157 0 0 3 
353 8 2 1.00000000 128.19999695 77.59584045 -83.38983917 638.17395973 0 0 3 
354 8 2 1.00000000 128.19999695 75.00428772 -81.25242615 639.58797073 0 0 3 
355 8 2 1.00000000 128.19999695 75.89994812 -77.58139038 637.96565533 0 0 3 
356 8 1 -1.00000000 129.10000610 76.42932892 -75.98979187 634.89614868 0 0 3 
357 8 2 1.00000000 128.19999695 80.06587982 -76.81111145 633.53584385 0 0 3 
358 8 1 -1.00000000 129.10000610 80.71910858 -76.46987915 629.60380411 0 0 3 
359 8 1 -1.00000000 129.10000610 83.92765808 -75.94780731 628.21731710 0 0 3 
360 8 1 -1.00000000 129.10000610 85.14419556 -79.85916138 627.72068214 0 0 3 
361 8 2 1.00000000 128.19999695 84.24495697 -80.72365570 624.32965016 0 0 3 
362 8 1 -1.00000000 129.10000610 83.02423859 -80.50782013 620.68853915 0 0 3 
363 8 1 -1.00000000 129.10000610 85.42394257 -78.39672852 618.54437065 0 0 3 
364 8 1 -1.00000000 129.10000610 86.31085968 -78.61428833 614.83683586 0 0 3 
365 8 2 1.00000000 128.19999695 83.31320953 -78.93100739 612.47190666 0 0 3 
366 8 2 1.00000000 128.19999695 81.18785858 -78.60601807 608.75978374 0 0 3 
367 8 1 -1.00000000 129.10000610 80.91905212 -74.76086426 608.65512085 0 0 3 
368 8 1 -1.00000000 129.10000610 79.70100403 -71.07381439 607.40620232 0 0 3 
369 8 2 1.00000000 128.19999695 75.96291351 -70.79859161 608.87800789 0 0 3 
370 8 1 -1.00000000 129.10000610 73.67609406 -73.74890137 609.91821003 0 0 3 
371 8 1 -1.00000000 129.10000610 70.18532562 -74.35543823 611.48757458 0 0 3 
372 8 1 -1.00000000 129.10000610 66.38897705 -73.61268616 611.45788765 0 0 3 
373 8 2 1.00000000 128.19999695 63.26939774 -75.05525970 609.33091831 0 0 3 