ITEM: TIMESTEP
43900000 
ITEM: NUMBER OF ATOMS 
25000 
ITEM: BOX BOUNDS pp pp pp 
-103.678017 103.678017 
-103.678017 103.678017 
-103.678017 103.678017 
ITEM: ATOMS id mol type q mass xu yu zu ix iy iz 
1 1 2 1.00000000 128.19999695 515.15077972 -195.94966030 -266.57341385 2 -1 -1 
2 1 1 -1.00000000 129.10000610 515.37612152 -194.42490959 -270.12488556 2 -1 -1 
3 1 2 1.00000000 128.19999695 517.21214294 -191.70120430 -272.64282227 2 -1 -1 
4 1 2 1.00000000 128.19999695 517.61720276 -188.62902641 -270.14761734 2 -1 -1 
5 1 2 1.00000000 128.19999695 517.70143127 -185.70903778 -268.11396027 2 -1 -1 
6 1 1 -1.00000000 129.10000610 518.39949036 -183.07995415 -265.53835297 3 -1 -1 
7 1 2 1.00000000 128.19999695 517.00296783 -179.75399017 -264.66932297 2 -1 -1 
8 1 1 -1.00000000 129.10000610 516.04229736 -179.27215958 -260.82320404 2 -1 -1 
9 1 1 -1.00000000 129.10000610 514.85717010 -181.98305321 -258.61695480 2 -1 -1 
10 1 1 -1.00000000 129.10000610 517.51653290 -184.94789314 -258.67969894 2 -1 -1 
11 1 2 1.00000000 128.19999695 517.60551453 -187.61570358 -261.19447708 2 -1 -1 
12 1 1 -1.00000000 129.10000610 519.51641846 -190.98160553 -261.83063126 3 -1 -1 
13 1 1 -1.00000000 129.10000610 521.81099701 -193.37930965 -263.72416306 3 -1 -1 
14 1 1 -1.00000000 129.10000610 521.91749573 -193.19070148 -267.76405716 3 -1 -1 
15 1 2 1.00000000 128.19999695 525.56265259 -192.78459072 -268.82760239 3 -1 -1 
16 1 2 1.00000000 128.19999695 525.66780853 -189.15622139 -269.92091751 3 -1 -1 
17 1 1 -1.00000000 129.10000610 524.92580414 -186.36249352 -272.34732056 3 -1 -1 
18 1 1 -1.00000000 129.10000610 527.13420868 -184.68429375 -275.24021912 3 -1 -1 
19 1 2 1.00000000 128.19999695 524.00133514 -183.89917946 -277.67720032 3 -1 -1 
20 1 1 -1.00000000 129.10000610 523.17631531 -180.43861389 -275.96463013 3 -1 -1 
21 1 1 -1.00000000 129.10000610 520.15847015 -178.22641945 -274.52001953 3 -1 -1 
22 1 1 -1.00000000 129.10000610 521.94528961 -177.34965515 -271.57240295 3 -1 -1 
23 1 2 1.00000000 128.19999695 524.73739624 -177.21953583 -268.95895386 3 -1 -1 
24 1 1 -1.00000000 129.10000610 522.83174133 -174.78508377 -266.60283661 3 -1 -1 
25 1 1 -1.00000000 129.10000610 524.28218842 -176.05248260 -263.32051849 3 -1 -1 
26 1 2 1.00000000 128.19999695 526.04727936 -174.98730087 -260.29254913 3 -1 -1 
27 1 2 1.00000000 128.19999695 528.92145538 -176.80622292 -258.72016144 3 -1 -1 
28 1 2 1.00000000 128.19999695 528.07776642 -179.66481781 -256.19337082 3 -1 -1 
29 1 2 1.00000000 128.19999695 529.57534027 -182.97637749 -254.99146652 3 -1 -1 
30 1 2 1.00000000 128.19999695 527.34239197 -185.32240868 -257.39057541 3 -1 -1 
31 1 1 -1.00000000 129.10000610 525.11058044 -183.24695396 -259.89274216 3 -1 -1 
32 1 1 -1.00000000 129.10000610 522.98521423 -180.42138672 -258.93696213 3 -1 -1 
33 1 1 -1.00000000 129.10000610 521.39341736 -178.47922134 -255.95826340 3 -1 -1 
34 1 2 1.00000000 128.19999695 521.30978394 -178.13978195 -251.88448334 3 -1 -1 
35 1 2 1.00000000 128.19999695 521.38526917 -174.98957062 -249.74325943 3 -1 -1 
36 1 2 1.00000000 128.19999695 521.30262756 -171.62916565 -247.84228897 3 -1 -1 
37 1 1 -1.00000000 129.10000610 523.03900146 -169.33966827 -249.75809097 3 -1 -1 
38 1 2 1.00000000 128.19999695 522.83724213 -165.69187546 -250.53027344 3 -1 -1 
39 1 1 -1.00000000 129.10000610 519.17753601 -165.57690048 -248.97824860 3 -1 -1 
40 1 1 -1.00000000 129.10000610 519.77616882 -164.14531708 -245.38502502 3 -1 -1 
41 1 1 -1.00000000 129.10000610 516.46792603 -163.01544952 -244.13812637 2 -1 -1 
42 1 2 1.00000000 128.19999695 516.57643127 -163.02938080 -240.40912628 2 -1 -1 
43 1 1 -1.00000000 129.10000610 515.13582611 -160.03440475 -238.00224876 2 -1 -1 
44 1 2 1.00000000 128.19999695 511.38660431 -159.51176453 -236.58448601 2 -1 -1 
45 1 2 1.00000000 128.19999695 509.81583405 -156.30935669 -235.74872780 2 -1 -1 
46 1 2 1.00000000 128.19999695 509.70566559 -153.36331940 -233.13070488 2 -1 -1 
47 1 1 -1.00000000 129.10000610 509.56315613 -155.07398987 -229.63182259 2 -1 -1 
48 1 2 1.00000000 128.19999695 512.47303009 -157.37210846 -228.71069717 2 -1 -1 
49 1 1 -1.00000000 129.10000610 514.36767578 -159.35818481 -231.36577415 2 -1 -1 
50 1 2 1.00000000 128.19999695 516.87811279 -162.44888306 -231.76400185 2 -1 -1 
51 2 2 1.00000000 128.19999695 489.17167664 298.95808411 -316.71391296 2 1 -2 
52 2 1 -1.00000000 129.10000610 488.39079285 302.16683960 -314.85714722 2 1 -2 
53 2 2 1.00000000 128.19999695 490.09143829 305.27138519 -315.96076965 2 1 -2 
54 2 2 1.00000000 128.19999695 492.88997650 307.23773193 -317.68093872 2 1 -2 
55 2 2 1.00000000 128.19999695 495.88458252 309.85650635 -317.12805176 2 1 -2 
56 2 1 -1.00000000 129.10000610 499.13541412 308.30471802 -318.65567017 2 1 -2 
57 2 2 1.00000000 128.19999695 502.41538239 310.32066345 -318.97906494 2 1 -2 
58 2 1 -1.00000000 129.10000610 502.29233551 312.61347961 -322.46523285 2 2 -2 
59 2 1 -1.00000000 129.10000610 505.50012970 313.93480682 -323.56571960 2 2 -2 
60 2 1 -1.00000000 129.10000610 508.19785309 313.50399780 -326.29446411 2 2 -2 
61 2 2 1.00000000 128.19999695 509.99207306 310.52557373 -328.52932739 2 1 -2 
62 2 1 -1.00000000 129.10000610 513.89589691 309.88410950 -327.50661469 2 1 -2 
63 2 1 -1.00000000 129.10000610 516.66994476 312.52850342 -326.89547729 2 2 -2 
64 2 1 -1.00000000 129.10000610 520.24402618 312.67626190 -326.00064850 3 2 -2 
65 2 2 1.00000000 128.19999695 522.53681946 309.94263458 -327.41432190 3 1 -2 
66 2 2 1.00000000 128.19999695 524.12821960 311.67009735 -330.52196503 3 2 -2 
67 2 1 -1.00000000 129.10000610 527.05176544 309.76671600 -332.00984955 3 1 -2 
68 2 1 -1.00000000 129.10000610 526.94398499 306.13731384 -330.88603973 3 1 -2 
69 2 2 1.00000000 128.19999695 526.95719910 303.08505249 -333.32667542 3 1 -2 
70 2 1 -1.00000000 129.10000610 530.25502014 302.06553650 -332.34349060 3 1 -2 
71 2 1 -1.00000000 129.10000610 533.76641083 301.67127991 -333.91608429 3 1 -2 
72 2 1 -1.00000000 129.10000610 537.58734894 302.63237762 -334.53518677 3 1 -2 
73 2 2 1.00000000 128.19999695 540.00595093 305.17296600 -333.92539978 3 1 -2 
74 2 1 -1.00000000 129.10000610 543.73477173 305.04750061 -332.61644745 3 1 -2 
75 2 1 -1.00000000 129.10000610 545.74724579 305.60369873 -329.16184998 3 1 -2 
76 2 2 1.00000000 128.19999695 545.85653687 308.54049683 -327.18578339 3 1 -2 
77 2 2 1.00000000 128.19999695 543.78515625 311.89282990 -327.07866669 3 2 -2 
78 2 2 1.00000000 128.19999695 542.16765594 312.56439209 -323.61026001 3 2 -2 
79 2 2 1.00000000 128.19999695 541.17796326 315.03638458 -321.12754059 3 2 -2 
80 2 2 1.00000000 128.19999695 538.35176849 316.69265747 -319.48107147 3 2 -2 
81 2 1 -1.00000000 129.10000610 535.53135681 318.97552490 -318.67417145 3 2 -2 
82 2 1 -1.00000000 129.10000610 535.03939056 321.68423462 -315.91689301 3 2 -2 
83 2 1 -1.00000000 129.10000610 533.34400177 325.05991364 -315.61419678 3 2 -2 
84 2 2 1.00000000 128.19999695 534.34227753 326.52845001 -312.05411530 3 2 -2 
85 2 2 1.00000000 128.19999695 534.58913422 330.09523773 -311.79335785 3 2 -2 
86 2 2 1.00000000 128.19999695 535.01642609 333.15351105 -313.77008820 3 2 -2 
87 2 1 -1.00000000 129.10000610 538.27382660 334.40319061 -314.98963928 3 2 -2 
88 2 2 1.00000000 128.19999695 541.68624115 335.48134613 -316.24878693 3 2 -2 
89 2 1 -1.00000000 129.10000610 545.78059387 334.82646179 -315.48641205 3 2 -2 
90 2 1 -1.00000000 129.10000610 547.73860931 337.42460632 -313.86705780 3 2 -2 
91 2 1 -1.00000000 129.10000610 549.28945923 340.00627136 -316.13388824 3 2 -2 
92 2 2 1.00000000 128.19999695 549.31195831 343.18550873 -313.69235229 3 2 -2 
93 2 1 -1.00000000 129.10000610 547.25394440 346.37590027 -313.76428223 3 2 -2 
94 2 2 1.00000000 128.19999695 544.18366241 346.73518372 -315.93523407 3 2 -2 
95 2 2 1.00000000 128.19999695 543.73819733 349.39588165 -318.54483795 3 2 -2 
96 2 2 1.00000000 128.19999695 546.81462097 351.01647949 -319.66193390 3 2 -2 
97 2 1 -1.00000000 129.10000610 548.28880310 354.44631958 -321.16628265 3 2 -2 
98 2 2 1.00000000 128.19999695 551.97893524 355.26194382 -322.18680573 3 2 -2 
99 2 1 -1.00000000 129.10000610 554.96999359 355.10208511 -324.47673035 3 2 -2 
100 2 2 1.00000000 128.19999695 555.93687439 354.33506393 -328.17656708 3 2 -2 
101 3 2 1.00000000 128.19999695 323.28634644 -124.12615204 77.80701447 2 -1 0 
102 3 1 -1.00000000 129.10000610 322.36157227 -127.29814911 79.89861298 2 -1 0 
103 3 2 1.00000000 128.19999695 323.23093414 -127.63844299 83.79300690 2 -1 0 
104 3 2 1.00000000 128.19999695 324.54473877 -127.23264313 86.90003204 2 -1 0 
105 3 2 1.00000000 128.19999695 327.05442047 -124.73164368 88.22105408 2 -1 0 
106 3 1 -1.00000000 129.10000610 331.00114441 -124.21594238 89.31381226 2 -1 0 
107 3 2 1.00000000 128.19999695 332.38105011 -120.78811646 90.62203979 2 -1 0 
108 3 1 -1.00000000 129.10000610 332.92465973 -117.60816956 88.46270752 2 -1 0 
109 3 1 -1.00000000 129.10000610 336.28905487 -117.50505066 86.85835266 2 -1 0 
110 3 1 -1.00000000 129.10000610 338.77230072 -119.87802124 85.27431488 2 -1 0 
111 3 2 1.00000000 128.19999695 340.16209412 -123.75949097 84.50113678 2 -1 0 
112 3 1 -1.00000000 129.10000610 343.47830200 -125.46580505 84.40275574 2 -1 0 
113 3 1 -1.00000000 129.10000610 347.14555359 -125.75554657 85.13220978 2 -1 0 
114 3 1 -1.00000000 129.10000610 349.61029053 -127.34469604 87.23538971 2 -1 0 
115 3 2 1.00000000 128.19999695 352.41905594 -129.25713348 88.73517609 2 -1 0 
116 3 2 1.00000000 128.19999695 353.48482132 -132.81729126 87.37000275 2 -1 0 
117 3 1 -1.00000000 129.10000610 354.95107651 -135.84053040 86.63996124 2 -1 0 
118 3 1 -1.00000000 129.10000610 355.89003372 -137.62445068 89.84099579 2 -1 0 
119 3 2 1.00000000 128.19999695 358.14117432 -139.10492706 92.43665314 2 -1 0 
120 3 1 -1.00000000 129.10000610 361.86660385 -139.04810333 92.71842194 2 -1 0 
121 3 1 -1.00000000 129.10000610 365.30730820 -140.29937744 92.93318939 2 -1 0 
122 3 1 -1.00000000 129.10000610 368.05623627 -137.59003448 93.75643921 2 -1 0 
123 3 2 1.00000000 128.19999695 370.67930603 -139.54278564 96.32573700 2 -1 0 
124 3 1 -1.00000000 129.10000610 368.88838577 -140.97872925 99.62993622 2 -1 0 
125 3 1 -1.00000000 129.10000610 371.80993271 -142.23076630 101.98753357 2 -1 0 
126 3 2 1.00000000 128.19999695 372.70978546 -145.70858765 101.08465576 2 -1 0 
127 3 2 1.00000000 128.19999695 376.32784271 -146.65975571 102.88030243 2 -1 0 
128 3 2 1.00000000 128.19999695 378.36286926 -148.64220047 100.74966431 2 -1 0 
129 3 2 1.00000000 128.19999695 377.29763031 -150.08544540 97.18331146 2 -1 0 
130 3 2 1.00000000 128.19999695 377.94766617 -151.05859756 93.63487244 2 -1 0 
131 3 1 -1.00000000 129.10000610 374.95788193 -152.70863342 91.94629669 2 -1 0 
132 3 1 -1.00000000 129.10000610 372.06207657 -154.16228104 89.55667877 2 -1 0 
133 3 1 -1.00000000 129.10000610 368.68845749 -152.71884537 89.52664948 2 -1 0 
134 3 2 1.00000000 128.19999695 365.77754211 -150.87173843 87.31367493 2 -1 0 
135 3 2 1.00000000 128.19999695 362.45510864 -151.92490768 85.87728119 2 -1 0 
136 3 2 1.00000000 128.19999695 360.74181366 -154.16534805 88.27693939 2 -1 0 
137 3 1 -1.00000000 129.10000610 361.96696854 -154.29852295 92.04943848 2 -1 0 
138 3 2 1.00000000 128.19999695 361.55591965 -151.54666519 94.89413452 2 -1 0 
139 3 1 -1.00000000 129.10000610 364.59815598 -150.20086288 94.95590210 2 -1 0 
140 3 1 -1.00000000 129.10000610 365.92008591 -146.92351913 96.31211090 2 -1 0 
141 3 1 -1.00000000 129.10000610 369.74773788 -147.59275436 96.10388184 2 -1 0 
142 3 2 1.00000000 128.19999695 370.33912659 -147.16306305 92.31009674 2 -1 0 
143 3 1 -1.00000000 129.10000610 371.50820160 -144.12439346 91.51781464 2 -1 0 
144 3 2 1.00000000 128.19999695 372.85439301 -141.69587708 89.19824982 2 -1 0 
145 3 2 1.00000000 128.19999695 373.85778046 -138.00629425 90.14587402 2 -1 0 
146 3 2 1.00000000 128.19999695 376.57553482 -136.82074738 87.85395050 2 -1 0 
147 3 1 -1.00000000 129.10000610 377.19245148 -136.46950531 84.11719513 2 -1 0 
148 3 2 1.00000000 128.19999695 377.61318588 -133.03573608 82.28861237 2 -1 0 
149 3 1 -1.00000000 129.10000610 374.43005371 -132.52709961 80.12902069 2 -1 0 
150 3 2 1.00000000 128.19999695 371.17019653 -133.70702362 78.28038788 2 -1 0 
151 4 2 1.00000000 128.19999695 -303.85015869 351.73498154 8.46764565 -1 2 0 
152 4 1 -1.00000000 129.10000610 -303.58428955 351.15672684 4.76185369 -1 2 0 
153 4 2 1.00000000 128.19999695 -302.36048126 353.33982086 1.75242913 -1 2 0 
154 4 2 1.00000000 128.19999695 -299.75604248 355.64031982 -0.01282821 -1 2 0 
155 4 2 1.00000000 128.19999695 -299.87608337 357.18391800 -3.21647334 -1 2 0 
156 4 1 -1.00000000 129.10000610 -301.85096741 359.92037582 -5.43748236 -1 2 0 
157 4 2 1.00000000 128.19999695 -303.90052795 361.58034134 -2.73836946 -1 2 0 
158 4 1 -1.00000000 129.10000610 -306.19611359 361.90489960 0.02485921 -1 2 0 
159 4 1 -1.00000000 129.10000610 -309.33476257 362.02342606 2.21413231 -1 2 0 
160 4 1 -1.00000000 129.10000610 -310.71974945 363.33965683 5.42942572 -1 2 0 
161 4 2 1.00000000 128.19999695 -312.88130188 366.09023666 7.93310642 -2 2 0 
162 4 1 -1.00000000 129.10000610 -314.39939880 369.07379913 5.56374693 -2 2 0 
163 4 1 -1.00000000 129.10000610 -318.02899933 369.26924515 3.91581154 -2 2 0 
164 4 1 -1.00000000 129.10000610 -320.27663422 371.40868378 6.65771341 -2 2 0 
165 4 2 1.00000000 128.19999695 -320.79933167 369.47922134 9.93531418 -2 2 0 
166 4 2 1.00000000 128.19999695 -320.18899536 366.60971832 12.61479473 -2 2 0 
167 4 1 -1.00000000 129.10000610 -318.21942139 366.05876160 16.16717529 -2 2 0 
168 4 1 -1.00000000 129.10000610 -314.62192535 364.96857071 15.95849609 -2 2 0 
169 4 2 1.00000000 128.19999695 -312.38321686 366.39443207 18.57406235 -2 2 0 
170 4 1 -1.00000000 129.10000610 -314.00631714 369.35864639 20.26976967 -2 2 0 
171 4 1 -1.00000000 129.10000610 -316.38896179 371.92457199 21.65570450 -2 2 0 
172 4 1 -1.00000000 129.10000610 -318.67450714 375.01190567 22.20096016 -2 2 0 
173 4 2 1.00000000 128.19999695 -318.94732666 378.42755508 21.15847397 -2 2 0 
174 4 1 -1.00000000 129.10000610 -321.94247437 380.56150436 19.96782875 -2 2 0 
175 4 1 -1.00000000 129.10000610 -325.54629517 380.19909286 20.95143318 -2 2 0 
176 4 2 1.00000000 128.19999695 -328.06830597 379.06141281 17.93520164 -2 2 0 
177 4 2 1.00000000 128.19999695 -330.67578888 377.99664307 15.24398994 -2 2 0 
178 4 2 1.00000000 128.19999695 -334.51314545 377.72131729 14.72168446 -2 2 0 
179 4 2 1.00000000 128.19999695 -337.85426331 378.43624878 16.68785858 -2 2 0 
180 4 2 1.00000000 128.19999695 -337.25006866 377.58126450 20.30886841 -2 2 0 
181 4 1 -1.00000000 129.10000610 -333.95292664 379.12360764 21.26709175 -2 2 0 
182 4 1 -1.00000000 129.10000610 -332.27855682 382.50458527 21.23576736 -2 2 0 
183 4 1 -1.00000000 129.10000610 -330.54345703 382.82246017 24.76470375 -2 2 0 
184 4 2 1.00000000 128.19999695 -330.88916016 384.03748894 28.49627113 -2 2 0 
185 4 2 1.00000000 128.19999695 -329.10830688 386.83433723 30.02216721 -2 2 0 
186 4 2 1.00000000 128.19999695 -328.38525391 389.88980865 28.25279999 -2 2 0 
187 4 1 -1.00000000 129.10000610 -326.01084900 392.62629128 29.07945633 -2 2 0 
188 4 2 1.00000000 128.19999695 -325.37062073 396.27716827 28.31995392 -2 2 0 
189 4 1 -1.00000000 129.10000610 -324.78853607 399.89876461 28.15072250 -2 2 0 
190 4 1 -1.00000000 129.10000610 -324.47124481 402.44269562 31.14722443 -2 2 0 
191 4 1 -1.00000000 129.10000610 -325.76532745 400.11284637 34.05705261 -2 2 0 
192 4 2 1.00000000 128.19999695 -325.88449860 396.70492554 35.77324295 -2 2 0 
193 4 1 -1.00000000 129.10000610 -325.02290344 395.65925980 39.54691696 -2 2 0 
194 4 2 1.00000000 128.19999695 -326.70944214 395.23712540 43.11712265 -2 2 0 
195 4 2 1.00000000 128.19999695 -329.17013550 396.94698143 45.26839066 -2 2 0 
196 4 2 1.00000000 128.19999695 -328.62579346 397.65452957 49.00389481 -2 2 0 
197 4 1 -1.00000000 129.10000610 -327.13506317 401.23044014 48.85553360 -2 2 0 
198 4 2 1.00000000 128.19999695 -325.58979797 403.85976696 50.98585510 -2 2 0 
199 4 1 -1.00000000 129.10000610 -327.59510040 404.49634171 54.49568939 -2 2 0 
200 4 2 1.00000000 128.19999695 -331.14469910 404.55681992 54.09801483 -2 2 0 
201 5 2 1.00000000 128.19999695 -336.36672211 -178.45433998 -250.80801773 -2 -1 -1 
202 5 1 -1.00000000 129.10000610 -334.76217651 -177.91798401 -247.30818176 -2 -1 -1 
203 5 2 1.00000000 128.19999695 -331.91530609 -180.10222054 -245.80007172 -2 -1 -1 
204 5 2 1.00000000 128.19999695 -330.32326508 -182.70269394 -243.44433594 -2 -1 -1 
205 5 2 1.00000000 128.19999695 -330.87187958 -186.12758446 -242.02657700 -2 -1 -1 
206 5 1 -1.00000000 129.10000610 -328.54665375 -189.04373932 -240.09891129 -2 -1 -1 
207 5 2 1.00000000 128.19999695 -330.52521515 -190.94145012 -237.56418228 -2 -1 -1 
208 5 1 -1.00000000 129.10000610 -333.95132446 -192.90626526 -235.88558960 -2 -1 -1 
209 5 1 -1.00000000 129.10000610 -334.25523376 -196.46083450 -237.36319160 -2 -1 -1 
210 5 1 -1.00000000 129.10000610 -333.57040405 -196.17340088 -241.26290894 -2 -1 -1 
211 5 2 1.00000000 128.19999695 -337.06314087 -195.51656342 -242.75300217 -2 -1 -1 
212 5 1 -1.00000000 129.10000610 -340.27683258 -196.84202290 -244.15746307 -2 -1 -1 
213 5 1 -1.00000000 129.10000610 -343.90787506 -197.71650696 -245.03815079 -2 -1 -1 
214 5 1 -1.00000000 129.10000610 -346.03440857 -201.08528423 -245.51832199 -2 -1 -1 
215 5 2 1.00000000 128.19999695 -345.58619690 -203.48368382 -248.17581177 -2 -1 -1 
216 5 2 1.00000000 128.19999695 -344.96518707 -205.42497253 -251.07974243 -2 -1 -1 
217 5 1 -1.00000000 129.10000610 -342.54541016 -208.65940070 -250.83981705 -2 -1 -1 
218 5 1 -1.00000000 129.10000610 -339.22473145 -208.21409845 -249.03096008 -2 -1 -1 
219 5 2 1.00000000 128.19999695 -338.71741486 -204.39717364 -247.96875381 -2 -1 -1 
220 5 1 -1.00000000 129.10000610 -335.25914001 -203.16530323 -247.73211670 -2 -1 -1 
221 5 1 -1.00000000 129.10000610 -335.98671722 -199.26394653 -248.14771652 -2 -1 -1 
222 5 1 -1.00000000 129.10000610 -332.18869019 -198.51443005 -247.86662292 -2 -1 -1 
223 5 2 1.00000000 128.19999695 -329.67512512 -201.49174738 -246.96218872 -2 -1 -1 
224 5 1 -1.00000000 129.10000610 -328.59761810 -204.96938396 -248.33876038 -2 -1 -1 
225 5 1 -1.00000000 129.10000610 -326.02172852 -207.70223626 -249.37943268 -2 -1 -1 
226 5 2 1.00000000 128.19999695 -323.93276978 -210.79202867 -249.03547287 -2 -1 -1 
227 5 2 1.00000000 128.19999695 -323.54576874 -214.24035883 -247.01998520 -2 -1 -1 
228 5 2 1.00000000 128.19999695 -324.48024750 -217.35028934 -244.76099014 -2 -1 -1 
229 5 2 1.00000000 128.19999695 -322.31214905 -219.26539516 -242.23386002 -2 -1 -1 
230 5 2 1.00000000 128.19999695 -318.66877747 -218.53101540 -241.06558609 -2 -1 -1 
231 5 1 -1.00000000 129.10000610 -317.46280670 -221.16822624 -238.10885239 -2 -1 -1 
232 5 1 -1.00000000 129.10000610 -314.65533447 -223.91166306 -238.04348755 -2 -1 -1 
233 5 1 -1.00000000 129.10000610 -314.81201172 -227.69586372 -238.18315887 -2 -1 -1 
234 5 2 1.00000000 128.19999695 -311.19026184 -228.82556725 -238.52268600 -2 -1 -1 
235 5 2 1.00000000 128.19999695 -310.41030121 -232.23025703 -237.63926697 -1 -1 -1 
236 5 2 1.00000000 128.19999695 -310.79526520 -235.03598595 -240.41460800 -1 -1 -1 
237 5 1 -1.00000000 129.10000610 -309.13088989 -238.23853302 -240.10823822 -1 -1 -1 
238 5 2 1.00000000 128.19999695 -305.85739136 -240.03297806 -239.35821152 -1 -1 -1 
239 5 1 -1.00000000 129.10000610 -302.10784912 -240.96311188 -239.39137268 -1 -1 -1 
240 5 1 -1.00000000 129.10000610 -298.96430206 -240.16500092 -237.79275703 -1 -1 -1 
241 5 1 -1.00000000 129.10000610 -295.36023712 -238.66152382 -238.00691605 -1 -1 -1 
242 5 2 1.00000000 128.19999695 -294.62942505 -238.23010445 -234.41203117 -1 -1 -1 
243 5 1 -1.00000000 129.10000610 -296.69705200 -237.73316002 -231.25510788 -1 -1 -1 
244 5 2 1.00000000 128.19999695 -297.78631592 -237.24493980 -227.59538651 -1 -1 -1 
245 5 2 1.00000000 128.19999695 -299.26773834 -240.25135803 -225.92047310 -1 -1 -1 
246 5 2 1.00000000 128.19999695 -298.69539642 -241.94332123 -222.23894787 -1 -1 -1 
247 5 1 -1.00000000 129.10000610 -297.94158936 -246.03493500 -222.74558735 -1 -1 -1 
248 5 2 1.00000000 128.19999695 -295.17060852 -248.52605820 -223.76443481 -1 -1 -1 
249 5 1 -1.00000000 129.10000610 -291.78980255 -247.93158340 -221.95103264 -1 -1 -1 
250 5 2 1.00000000 128.19999695 -288.12084198 -246.97259521 -223.09727192 -1 -1 -1 
251 6 2 1.00000000 128.19999695 486.06704712 -455.96638489 -136.45479584 2 -2 -1 
252 6 1 -1.00000000 129.10000610 485.30536652 -452.65886307 -136.66876984 2 -2 -1 
253 6 2 1.00000000 128.19999695 483.59238434 -449.24080658 -136.75417328 2 -2 -1 
254 6 2 1.00000000 128.19999695 485.28302002 -446.58687592 -134.31501007 2 -2 -1 
255 6 2 1.00000000 128.19999695 484.93582916 -443.11686707 -132.40350342 2 -2 -1 
256 6 1 -1.00000000 129.10000610 484.64396667 -439.74475479 -133.99674988 2 -2 -1 
257 6 2 1.00000000 128.19999695 481.08411407 -438.40409660 -133.20864868 2 -2 -1 
258 6 1 -1.00000000 129.10000610 478.36267090 -436.15590668 -132.12570953 2 -2 -1 
259 6 1 -1.00000000 129.10000610 477.32138443 -433.62287331 -134.33818054 2 -2 -1 
260 6 1 -1.00000000 129.10000610 476.15981293 -430.04588699 -135.13026428 2 -2 -1 
261 6 2 1.00000000 128.19999695 477.39103317 -426.90014648 -136.61387634 2 -2 -1 
262 6 1 -1.00000000 129.10000610 477.32888031 -423.85998440 -139.27091980 2 -2 -1 
263 6 1 -1.00000000 129.10000610 474.07859802 -422.91406536 -140.94535828 2 -2 -1 
264 6 1 -1.00000000 129.10000610 470.78895569 -421.10956335 -142.64344025 2 -2 -1 
265 6 2 1.00000000 128.19999695 467.47120285 -420.27208757 -140.87070465 2 -2 -1 
266 6 2 1.00000000 128.19999695 467.21063614 -416.49732649 -140.27566528 2 -2 -1 
267 6 1 -1.00000000 129.10000610 464.67699814 -415.63219237 -137.44853973 2 -2 -1 
268 6 1 -1.00000000 129.10000610 461.23031616 -414.37009811 -138.49124146 2 -2 -1 
269 6 2 1.00000000 128.19999695 458.05052948 -416.04373574 -139.89904785 2 -2 -1 
270 6 1 -1.00000000 129.10000610 456.38021469 -418.75730324 -142.19044495 2 -2 -1 
271 6 1 -1.00000000 129.10000610 455.16001892 -421.40232372 -144.63862610 2 -2 -1 
272 6 1 -1.00000000 129.10000610 456.06601715 -422.15088034 -148.37205887 2 -2 -1 
273 6 2 1.00000000 128.19999695 457.31182861 -425.37129879 -150.54548264 2 -2 -1 
274 6 1 -1.00000000 129.10000610 459.76030350 -427.30502701 -148.39609909 2 -2 -1 
275 6 1 -1.00000000 129.10000610 460.15548325 -427.80133820 -144.78290558 2 -2 -1 
276 6 2 1.00000000 128.19999695 460.04090881 -428.49278545 -141.32371521 2 -2 -1 
277 6 2 1.00000000 128.19999695 460.20659637 -431.08490562 -138.75297546 2 -2 -1 
278 6 2 1.00000000 128.19999695 462.19844055 -432.66714096 -135.98471069 2 -2 -1 
279 6 2 1.00000000 128.19999695 466.22196579 -433.57229233 -136.35669708 2 -2 -1 
280 6 2 1.00000000 128.19999695 467.11696243 -436.75582886 -134.72170258 2 -2 -1 
281 6 1 -1.00000000 129.10000610 466.45073318 -440.20288086 -134.00306702 2 -2 -1 
282 6 1 -1.00000000 129.10000610 462.63845825 -440.65852928 -134.46894073 2 -2 -1 
283 6 1 -1.00000000 129.10000610 461.62523270 -440.32578468 -137.93238068 2 -2 -1 
284 6 2 1.00000000 128.19999695 461.46647644 -443.63294601 -139.57908630 2 -2 -1 
285 6 2 1.00000000 128.19999695 460.65328598 -445.71758652 -142.65211487 2 -2 -1 
286 6 2 1.00000000 128.19999695 456.85288620 -446.76868820 -143.83955002 2 -2 -1 
287 6 1 -1.00000000 129.10000610 454.68225098 -448.37899017 -141.39189911 2 -2 -1 
288 6 2 1.00000000 128.19999695 451.55857849 -450.05905151 -139.97808838 2 -2 -1 
289 6 1 -1.00000000 129.10000610 447.97805405 -451.67680359 -140.47595978 2 -2 -1 
290 6 1 -1.00000000 129.10000610 448.04850769 -452.38108063 -144.30541992 2 -2 -1 
291 6 1 -1.00000000 129.10000610 447.43147659 -455.34851456 -145.96420288 2 -2 -1 
292 6 2 1.00000000 128.19999695 446.72955704 -458.08572769 -143.48263931 2 -2 -1 
293 6 1 -1.00000000 129.10000610 443.72089767 -459.04050827 -141.52111053 2 -2 -1 
294 6 2 1.00000000 128.19999695 442.95222473 -462.08791733 -139.28333282 2 -2 -1 
295 6 2 1.00000000 128.19999695 442.13713455 -464.01924515 -135.75135040 2 -2 -1 
296 6 2 1.00000000 128.19999695 440.08334160 -464.83026886 -132.63896179 2 -2 -1 
297 6 1 -1.00000000 129.10000610 438.99211502 -464.54132080 -129.09170532 2 -2 -1 
298 6 2 1.00000000 128.19999695 437.52839088 -461.35276031 -127.09841156 2 -2 -1 
299 6 1 -1.00000000 129.10000610 434.96700478 -460.09957123 -124.53711700 2 -2 -1 
300 6 2 1.00000000 128.19999695 433.92090797 -459.10026169 -120.89808655 2 -2 -1 
301 7 2 1.00000000 128.19999695 -62.26874924 -42.72340012 -797.93956375 0 0 -4 
302 7 1 -1.00000000 129.10000610 -64.27033997 -39.58130264 -797.20800400 0 0 -4 
303 7 2 1.00000000 128.19999695 -64.78244019 -36.36867523 -795.23809052 0 0 -4 
304 7 2 1.00000000 128.19999695 -64.92432404 -32.48241043 -795.98213577 0 0 -4 
305 7 2 1.00000000 128.19999695 -61.95118713 -32.16449356 -798.23857689 0 0 -4 
306 7 1 -1.00000000 129.10000610 -57.86594391 -32.30822754 -798.78604507 0 0 -4 
307 7 2 1.00000000 128.19999695 -56.30188751 -31.95074272 -795.20466232 0 0 -4 
308 7 1 -1.00000000 129.10000610 -56.32948685 -30.58047104 -791.57392883 0 0 -4 
309 7 1 -1.00000000 129.10000610 -54.54479599 -31.71542168 -788.49243927 0 0 -4 
310 7 1 -1.00000000 129.10000610 -50.99965286 -32.90534592 -788.92418671 0 0 -4 
311 7 2 1.00000000 128.19999695 -49.86654663 -33.19820023 -792.75676727 0 0 -4 
312 7 1 -1.00000000 129.10000610 -47.66056442 -32.69916153 -795.77980042 0 0 -4 
313 7 1 -1.00000000 129.10000610 -44.80770493 -30.85861588 -797.47849083 0 0 -4 
314 7 1 -1.00000000 129.10000610 -44.29695892 -33.41008377 -799.84447289 0 0 -4 
315 7 2 1.00000000 128.19999695 -41.97627640 -36.60276413 -798.87981987 0 0 -4 
316 7 2 1.00000000 128.19999695 -40.21384430 -39.87350082 -797.32870483 0 0 -4 
317 7 1 -1.00000000 129.10000610 -40.17197418 -41.39215469 -793.78123856 0 0 -4 
318 7 1 -1.00000000 129.10000610 -38.60784912 -44.87653351 -791.97117996 0 0 -4 
319 7 2 1.00000000 128.19999695 -35.09275436 -46.40987778 -792.93915558 0 0 -4 
320 7 1 -1.00000000 129.10000610 -32.45857620 -49.36649704 -792.13082886 0 0 -4 
321 7 1 -1.00000000 129.10000610 -29.64246750 -50.07219696 -789.74538422 0 0 -4 
322 7 1 -1.00000000 129.10000610 -27.03581810 -51.17070389 -792.19251251 0 0 -4 
323 7 2 1.00000000 128.19999695 -23.90040016 -51.04275513 -790.23680496 0 0 -4 
324 7 1 -1.00000000 129.10000610 -22.15028763 -52.39480972 -787.09505844 0 0 -4 
325 7 1 -1.00000000 129.10000610 -18.73496819 -52.15658569 -785.04090118 0 0 -4 
326 7 2 1.00000000 128.19999695 -15.26303577 -53.23067856 -785.04153824 0 0 -4 
327 7 2 1.00000000 128.19999695 -11.49280167 -53.82891846 -786.06122208 0 0 -4 
328 7 2 1.00000000 128.19999695 -8.44274235 -53.54594040 -784.26701736 0 0 -4 
329 7 2 1.00000000 128.19999695 -4.97078276 -51.56354141 -784.45152664 0 0 -4 
330 7 2 1.00000000 128.19999695 -2.09310889 -49.68919373 -782.10676956 0 0 -4 
331 7 1 -1.00000000 129.10000610 -0.61168677 -46.21195984 -781.32439423 0 0 -4 
332 7 1 -1.00000000 129.10000610 -0.12140027 -44.18448257 -778.06312561 0 0 -4 
333 7 1 -1.00000000 129.10000610 2.73338532 -41.76020813 -777.72846603 0 0 -4 
334 7 2 1.00000000 128.19999695 2.97353840 -40.53097916 -774.13390350 0 0 -4 
335 7 2 1.00000000 128.19999695 -0.31375894 -38.40436935 -773.43545532 0 0 -4 
336 7 2 1.00000000 128.19999695 -1.79077375 -34.80130386 -772.83259583 0 0 -4 
337 7 1 -1.00000000 129.10000610 -5.63603210 -35.39426804 -771.38435745 0 0 -4 
338 7 2 1.00000000 128.19999695 -9.10531235 -34.61890793 -769.52875137 0 0 -4 
339 7 1 -1.00000000 129.10000610 -10.63014412 -33.11891937 -766.56536865 0 0 -4 
340 7 1 -1.00000000 129.10000610 -12.90149689 -31.28113365 -763.46623993 0 0 -4 
341 7 1 -1.00000000 129.10000610 -12.31740952 -27.44440651 -763.94824982 0 0 -4 
342 7 2 1.00000000 128.19999695 -12.52202892 -25.16323280 -760.89727020 0 0 -4 
343 7 1 -1.00000000 129.10000610 -10.34153652 -22.34928703 -761.81101227 0 0 -4 
344 7 2 1.00000000 128.19999695 -6.89059305 -21.53929329 -763.87235260 0 0 -4 
345 7 2 1.00000000 128.19999695 -4.92719507 -24.59247398 -765.53868484 0 0 -4 
346 7 2 1.00000000 128.19999695 -3.52449417 -24.06533813 -768.79052734 0 0 -4 
347 7 1 -1.00000000 129.10000610 -0.12941220 -22.21279335 -768.12207413 0 0 -4 
348 7 2 1.00000000 128.19999695 0.44081518 -18.97411728 -769.84437561 0 0 -4 
349 7 1 -1.00000000 129.10000610 -1.74180317 -18.22315025 -772.87264633 0 0 -4 
350 7 2 1.00000000 128.19999695 -2.34474564 -21.39559364 -775.29372025 0 0 -4 
351 8 2 1.00000000 128.19999695 6.12204361 -250.01803970 605.85941315 0 -1 3 
352 8 1 -1.00000000 129.10000610 6.00384951 -253.66988754 605.89291763 0 -1 3 
353 8 2 1.00000000 128.19999695 5.36099195 -256.67009735 608.42327690 0 -1 3 
354 8 2 1.00000000 128.19999695 6.41455317 -258.96900177 611.44056797 0 -1 3 
355 8 2 1.00000000 128.19999695 8.54926777 -261.66518021 611.29234695 0 -1 3 
356 8 1 -1.00000000 129.10000610 8.03366280 -265.24594879 611.67948246 0 -1 3 
357 8 2 1.00000000 128.19999695 7.08667040 -268.62768936 613.37024021 0 -1 3 
358 8 1 -1.00000000 129.10000610 7.92365217 -269.04204941 617.17435122 0 -1 3 
359 8 1 -1.00000000 129.10000610 10.12735939 -271.83428192 619.45611382 0 -1 3 
360 8 1 -1.00000000 129.10000610 13.29696560 -270.12037277 619.47635460 0 -1 3 
361 8 2 1.00000000 128.19999695 15.30897045 -268.10865784 621.88653468 0 -1 3 
362 8 1 -1.00000000 129.10000610 15.83189774 -264.88239288 624.36349082 0 -1 3 
363 8 1 -1.00000000 129.10000610 18.45554924 -262.58981323 622.60532427 0 -1 3 
364 8 1 -1.00000000 129.10000610 19.45131302 -261.12430191 619.29849768 0 -1 3 
365 8 2 1.00000000 128.19999695 20.02499962 -259.63359451 616.06500864 0 -1 3 
366 8 2 1.00000000 128.19999695 22.47415924 -257.16843796 614.92813349 0 -1 3 
367 8 1 -1.00000000 129.10000610 22.90810204 -253.46020126 614.28836823 0 -1 3 
368 8 1 -1.00000000 129.10000610 21.46642876 -251.53400803 611.43815899 0 -1 3 