ITEM: TIMESTEP
40450000 
ITEM: NUMBER OF ATOMS 
25000 
ITEM: BOX BOUNDS pp pp pp 
-103.678017 103.678017 
-103.678017 103.678017 
-103.678017 103.678017 
ITEM: ATOMS id mol type q mass xu yu zu ix iy iz 
1 1 2 1.00000000 128.19999695 398.12995529 11.13665009 -341.55132294 2 0 -2 
2 1 1 -1.00000000 129.10000610 394.44193077 11.59024715 -340.31815338 2 0 -2 
3 1 2 1.00000000 128.19999695 392.23325157 13.97244072 -342.03373718 2 0 -2 
4 1 2 1.00000000 128.19999695 389.63952637 16.22040367 -343.08613586 2 0 -2 
5 1 2 1.00000000 128.19999695 390.77173424 18.94681931 -345.12926483 2 0 -2 
6 1 1 -1.00000000 129.10000610 394.48075104 20.30007553 -346.06803894 2 0 -2 
7 1 2 1.00000000 128.19999695 397.90635681 20.82665253 -345.03038025 2 0 -2 
8 1 1 -1.00000000 129.10000610 399.59582615 23.19768906 -347.70151520 2 0 -2 
9 1 1 -1.00000000 129.10000610 403.00490952 22.51033211 -348.61370087 2 0 -2 
10 1 1 -1.00000000 129.10000610 405.11213875 26.20870018 -348.73040771 2 0 -2 
11 1 2 1.00000000 128.19999695 407.06822062 26.60805130 -352.07788849 2 0 -2 
12 1 1 -1.00000000 129.10000610 407.07568979 26.71999931 -355.96865463 2 0 -2 
13 1 1 -1.00000000 129.10000610 405.10549355 27.87941551 -358.86912155 2 0 -2 
14 1 1 -1.00000000 129.10000610 401.66335487 28.96722031 -360.58926392 2 0 -2 
15 1 2 1.00000000 128.19999695 399.77306747 32.32479095 -360.49176025 2 0 -2 
16 1 2 1.00000000 128.19999695 396.44290543 34.24517059 -360.24566650 2 0 -2 
17 1 1 -1.00000000 129.10000610 397.38077736 38.20174026 -359.84929657 2 0 -2 
18 1 1 -1.00000000 129.10000610 397.12690735 40.12133408 -356.66731262 2 0 -2 
19 1 2 1.00000000 128.19999695 396.88131142 38.42454147 -353.23417282 2 0 -2 
20 1 1 -1.00000000 129.10000610 396.29042435 40.89441681 -350.45623779 2 0 -2 
21 1 1 -1.00000000 129.10000610 398.56433296 43.41224670 -348.38967896 2 0 -2 
22 1 1 -1.00000000 129.10000610 400.31213284 45.52740860 -350.67161560 2 0 -2 
23 1 2 1.00000000 128.19999695 403.91659451 45.99464798 -351.73218536 2 0 -2 
24 1 1 -1.00000000 129.10000610 407.92805624 45.19577408 -351.62351990 2 0 -2 
25 1 1 -1.00000000 129.10000610 408.38646507 42.40435791 -349.25753784 2 0 -2 
26 1 2 1.00000000 128.19999695 407.61160374 39.26451492 -351.32249069 2 0 -2 
27 1 2 1.00000000 128.19999695 407.07618904 35.65053940 -351.76867294 2 0 -2 
28 1 2 1.00000000 128.19999695 405.94351864 32.78665161 -349.61180115 2 0 -2 
29 1 2 1.00000000 128.19999695 406.85066891 31.12147903 -346.51585388 2 0 -2 
30 1 2 1.00000000 128.19999695 409.46761847 30.85020447 -344.43027496 2 0 -2 
31 1 1 -1.00000000 129.10000610 410.97345209 30.41919327 -341.08187103 2 0 -2 
32 1 1 -1.00000000 129.10000610 413.80869222 32.99084473 -340.29319763 2 0 -2 
33 1 1 -1.00000000 129.10000610 412.41301918 36.44683075 -339.24820709 2 0 -2 
34 1 2 1.00000000 128.19999695 408.76295233 37.05496979 -339.94541168 2 0 -2 
35 1 2 1.00000000 128.19999695 406.40517902 39.28637314 -341.77880859 2 0 -2 
36 1 2 1.00000000 128.19999695 402.54944611 39.67735291 -340.17806244 2 0 -2 
37 1 1 -1.00000000 129.10000610 400.99023628 42.36807251 -338.56476593 2 0 -2 
38 1 2 1.00000000 128.19999695 400.84142780 45.53020096 -336.57387543 2 0 -2 
39 1 1 -1.00000000 129.10000610 402.28723526 48.68738174 -335.14902496 2 0 -2 
40 1 1 -1.00000000 129.10000610 405.02833843 49.98873901 -332.23814392 2 0 -2 
41 1 1 -1.00000000 129.10000610 403.43792915 51.71586990 -329.40660858 2 0 -2 
42 1 2 1.00000000 128.19999695 399.53640366 51.92834473 -329.03893280 2 0 -2 
43 1 1 -1.00000000 129.10000610 398.04579163 53.93864441 -326.26617432 2 0 -2 
44 1 2 1.00000000 128.19999695 395.86171341 56.49718094 -324.32990265 2 0 -2 
45 1 2 1.00000000 128.19999695 397.71111488 56.77715683 -320.96894836 2 0 -2 
46 1 2 1.00000000 128.19999695 401.73591995 57.23949432 -322.42980957 2 0 -2 
47 1 1 -1.00000000 129.10000610 401.65577888 60.19509506 -324.35337830 2 0 -2 
48 1 2 1.00000000 128.19999695 398.71275139 61.71578979 -326.53305817 2 0 -2 
49 1 1 -1.00000000 129.10000610 394.58120537 61.87298965 -325.68615723 2 0 -2 
50 1 2 1.00000000 128.19999695 392.01699829 61.34376526 -328.39664459 2 0 -2 
51 2 2 1.00000000 128.19999695 506.34335327 436.75539589 -241.56983948 2 2 -1 
52 2 1 -1.00000000 129.10000610 508.85769653 439.71332169 -241.05206299 2 2 -1 
53 2 2 1.00000000 128.19999695 510.71939850 439.21268463 -237.42476273 2 2 -1 
54 2 2 1.00000000 128.19999695 512.38770294 441.12793541 -234.55293655 2 2 -1 
55 2 2 1.00000000 128.19999695 512.08224487 439.43043327 -231.09119415 2 2 -1 
56 2 1 -1.00000000 129.10000610 511.61637878 436.08038902 -228.73285484 2 2 -1 
57 2 2 1.00000000 128.19999695 513.91095734 433.82152367 -230.56599998 2 2 -1 
58 2 1 -1.00000000 129.10000610 512.31311035 432.98532104 -233.99796486 2 2 -1 
59 2 1 -1.00000000 129.10000610 512.03269958 429.55109978 -234.72157669 2 2 -1 
60 2 1 -1.00000000 129.10000610 508.92546844 428.54930878 -233.05595779 2 2 -1 
61 2 2 1.00000000 128.19999695 505.63564301 428.21022320 -235.15088844 2 2 -1 
62 2 1 -1.00000000 129.10000610 502.29565430 426.51294518 -233.55417442 2 2 -1 
63 2 1 -1.00000000 129.10000610 498.61013794 426.72675133 -233.22883797 2 2 -1 
64 2 1 -1.00000000 129.10000610 495.70278931 429.35734463 -232.59091377 2 2 -1 
65 2 2 1.00000000 128.19999695 495.74929810 432.76233482 -230.93622398 2 2 -1 
66 2 2 1.00000000 128.19999695 499.34819794 434.48983002 -231.99265099 2 2 -1 
67 2 1 -1.00000000 129.10000610 501.50541687 437.15415573 -233.62915039 2 2 -1 
68 2 1 -1.00000000 129.10000610 498.93566132 439.01692772 -235.22736549 2 2 -1 
69 2 2 1.00000000 128.19999695 495.43365479 439.33778954 -233.95062447 2 2 -1 
70 2 1 -1.00000000 129.10000610 492.06695557 440.67038918 -232.78515053 2 2 -1 
71 2 1 -1.00000000 129.10000610 490.97997284 439.36469460 -229.29337883 2 2 -1 
72 2 1 -1.00000000 129.10000610 490.53018188 439.58030510 -225.55632210 2 2 -1 
73 2 2 1.00000000 128.19999695 489.61834717 443.11462402 -223.94268036 2 2 -1 
74 2 1 -1.00000000 129.10000610 490.13671112 447.13602448 -223.91499138 2 2 -1 
75 2 1 -1.00000000 129.10000610 489.75631714 450.91584015 -224.74565697 2 2 -1 
76 2 2 1.00000000 128.19999695 493.06085968 452.62526703 -225.40663528 2 2 -1 
77 2 2 1.00000000 128.19999695 495.86184692 450.23320007 -227.09603500 2 2 -1 
78 2 2 1.00000000 128.19999695 496.00221252 446.62637329 -227.48233986 2 2 -1 
79 2 2 1.00000000 128.19999695 498.39743042 445.17450142 -224.95442390 2 2 -1 
80 2 2 1.00000000 128.19999695 501.91419220 444.52802467 -223.07183838 2 2 -1 
81 2 1 -1.00000000 129.10000610 504.75373077 446.94934464 -223.75683975 2 2 -1 
82 2 1 -1.00000000 129.10000610 503.60987854 450.26171875 -223.92623711 2 2 -1 
83 2 1 -1.00000000 129.10000610 502.21332550 453.06893921 -222.20474243 2 2 -1 
84 2 2 1.00000000 128.19999695 502.92792511 456.98593903 -222.52060318 2 2 -1 
85 2 2 1.00000000 128.19999695 499.58934784 458.24988174 -222.84056091 2 2 -1 
86 2 2 1.00000000 128.19999695 496.75128174 458.91057968 -220.27357769 2 2 -1 
87 2 1 -1.00000000 129.10000610 493.51716614 460.59073257 -222.23884392 2 2 -1 
88 2 2 1.00000000 128.19999695 491.95986938 463.84329987 -221.11527920 2 2 -1 
89 2 1 -1.00000000 129.10000610 492.59889984 465.95064163 -224.56041527 2 2 -1 
90 2 1 -1.00000000 129.10000610 492.60437775 469.86120605 -225.11684036 2 2 -1 
91 2 1 -1.00000000 129.10000610 493.86851501 471.48012161 -222.00752354 2 2 -1 
92 2 2 1.00000000 128.19999695 494.27503967 474.95044327 -220.68585682 2 2 -1 
93 2 1 -1.00000000 129.10000610 497.08821869 476.41068268 -218.91151333 2 2 -1 
94 2 2 1.00000000 128.19999695 500.50134277 474.93640137 -219.99549294 2 2 -1 
95 2 2 1.00000000 128.19999695 501.38906860 474.32272720 -224.06596184 2 2 -1 
96 2 2 1.00000000 128.19999695 498.09088898 475.20585251 -226.27593994 2 2 -1 
97 2 1 -1.00000000 129.10000610 497.62982178 473.08831406 -229.67648125 2 2 -1 
98 2 2 1.00000000 128.19999695 495.33096313 471.85300827 -232.39458847 2 2 -1 
99 2 1 -1.00000000 129.10000610 492.84547424 468.80736542 -231.74063110 2 2 -1 
100 2 2 1.00000000 128.19999695 489.61551666 469.28314972 -231.05194473 2 2 -1 
101 3 2 1.00000000 128.19999695 315.80700684 -34.09748840 9.74408340 2 0 0 
102 3 1 -1.00000000 129.10000610 316.59289551 -37.25331497 7.76651430 2 0 0 
103 3 2 1.00000000 128.19999695 319.01251984 -39.11742401 5.95005322 2 0 0 
104 3 2 1.00000000 128.19999695 319.13298798 -42.75387573 4.51512051 2 0 0 
105 3 2 1.00000000 128.19999695 320.98758698 -45.64338303 6.51801300 2 0 0 
106 3 1 -1.00000000 129.10000610 321.16027832 -49.57995224 6.33287191 2 0 0 
107 3 2 1.00000000 128.19999695 320.94003296 -52.33282089 9.17203712 2 0 0 
108 3 1 -1.00000000 129.10000610 320.67716217 -53.08637238 12.94565678 2 0 0 
109 3 1 -1.00000000 129.10000610 319.46385193 -50.68743896 15.85444546 2 0 0 
110 3 1 -1.00000000 129.10000610 321.16289520 -48.32085037 18.06302834 2 0 0 
111 3 2 1.00000000 128.19999695 323.57643890 -45.53335571 19.81706810 2 0 0 
112 3 1 -1.00000000 129.10000610 325.85099030 -42.43783951 19.15621567 2 0 0 
113 3 1 -1.00000000 129.10000610 323.63921356 -40.63982773 16.78025627 2 0 0 
114 3 1 -1.00000000 129.10000610 322.73544312 -39.42381668 13.30680943 2 0 0 
115 3 2 1.00000000 128.19999695 324.56861877 -37.86306381 10.56328201 2 0 0 
116 3 2 1.00000000 128.19999695 326.68628693 -37.25426483 7.39983797 2 0 0 
117 3 1 -1.00000000 129.10000610 329.58937836 -35.82625961 5.72141457 2 0 0 
118 3 1 -1.00000000 129.10000610 330.70706940 -33.42141724 3.22107434 2 0 0 
119 3 2 1.00000000 128.19999695 333.29027557 -35.35406876 0.62727189 2 0 0 
120 3 1 -1.00000000 129.10000610 335.44842529 -38.54448700 0.85479218 2 0 0 
121 3 1 -1.00000000 129.10000610 334.97486877 -41.13018417 3.89966846 2 0 0 
122 3 1 -1.00000000 129.10000610 331.28222656 -41.89424896 4.68507624 2 0 0 
123 3 2 1.00000000 128.19999695 328.41096497 -43.44562149 6.20792389 2 0 0 
124 3 1 -1.00000000 129.10000610 328.57932281 -43.83496857 9.99108028 2 0 0 
125 3 1 -1.00000000 129.10000610 330.09933472 -47.07101059 11.55797005 2 0 0 
126 3 2 1.00000000 128.19999695 330.83578491 -45.44831085 14.87542248 2 0 0 
127 3 2 1.00000000 128.19999695 333.51274872 -47.19681549 17.26837540 2 0 0 
128 3 2 1.00000000 128.19999695 333.40855408 -45.31147385 20.72686195 2 0 0 
129 3 2 1.00000000 128.19999695 332.70216370 -43.91302490 24.34697914 2 0 0 
130 3 2 1.00000000 128.19999695 333.27854919 -40.14165115 24.36285400 2 0 0 
131 3 1 -1.00000000 129.10000610 334.74575043 -37.88410950 21.99229050 2 0 0 
132 3 1 -1.00000000 129.10000610 334.91130829 -38.96294785 17.98072815 2 0 0 
133 3 1 -1.00000000 129.10000610 336.06337738 -39.85843277 14.51791191 2 0 0 
134 3 2 1.00000000 128.19999695 334.65878296 -39.04143524 10.87513828 2 0 0 
135 3 2 1.00000000 128.19999695 337.85374451 -38.80316162 8.71414661 2 0 0 
136 3 2 1.00000000 128.19999695 341.28261566 -40.82855988 9.68225384 2 0 0 
137 3 1 -1.00000000 129.10000610 341.53578186 -43.56304932 7.09326220 2 0 0 
138 3 2 1.00000000 128.19999695 343.21304321 -46.85348511 6.76912642 2 0 0 
139 3 1 -1.00000000 129.10000610 345.09720612 -50.14011002 7.47391510 2 0 0 
140 3 1 -1.00000000 129.10000610 343.61888123 -53.64290619 7.58282566 2 0 0 
141 3 1 -1.00000000 129.10000610 344.64650726 -55.21595001 10.85637093 2 0 0 
142 3 2 1.00000000 128.19999695 343.05567932 -52.75877762 13.51341343 2 0 0 
143 3 1 -1.00000000 129.10000610 341.95387268 -54.46550369 16.99125290 2 0 0 
144 3 2 1.00000000 128.19999695 345.14244080 -53.63473129 18.76124191 2 0 0 
145 3 2 1.00000000 128.19999695 347.19972992 -55.24042892 21.50402260 2 0 0 
146 3 2 1.00000000 128.19999695 346.39643097 -58.01301575 23.85325813 2 0 0 
147 3 1 -1.00000000 129.10000610 349.35648346 -57.46080780 26.53038788 2 0 0 
148 3 2 1.00000000 128.19999695 351.98404312 -54.83864212 26.40797234 2 0 0 
149 3 1 -1.00000000 129.10000610 354.57270813 -53.01937485 24.61340714 2 0 0 
150 3 2 1.00000000 128.19999695 355.69174576 -53.18121338 21.00480843 2 0 0 
151 4 2 1.00000000 128.19999695 -305.60817719 256.02599335 -0.05245386 -1 1 0 
152 4 1 -1.00000000 129.10000610 -305.09864807 259.32839203 1.72884345 -1 1 0 
153 4 2 1.00000000 128.19999695 -306.45276642 262.74991608 2.06245446 -1 1 0 
154 4 2 1.00000000 128.19999695 -308.65435028 265.45324707 3.99405122 -1 1 0 
155 4 2 1.00000000 128.19999695 -308.93277740 268.84941101 5.90746117 -1 1 0 
156 4 1 -1.00000000 129.10000610 -310.09188080 270.91564178 9.09754944 -1 1 0 
157 4 2 1.00000000 128.19999695 -312.15667725 271.32537842 12.33794403 -2 1 0 
158 4 1 -1.00000000 129.10000610 -313.42127228 272.43981171 15.73922253 -2 1 0 
159 4 1 -1.00000000 129.10000610 -315.08939362 274.13516998 18.78795242 -2 1 0 
160 4 1 -1.00000000 129.10000610 -317.17161560 272.61771393 21.88563538 -2 1 0 
161 4 2 1.00000000 128.19999695 -318.42824554 271.72869110 25.41962051 -2 1 0 
162 4 1 -1.00000000 129.10000610 -320.12702942 273.41716003 28.62218094 -2 1 0 
163 4 1 -1.00000000 129.10000610 -317.77558899 275.04463959 30.84930992 -2 1 0 
164 4 1 -1.00000000 129.10000610 -316.62461853 278.94932556 29.92649078 -2 1 0 
165 4 2 1.00000000 128.19999695 -318.67835999 282.11611176 30.72867584 -2 1 0 
166 4 2 1.00000000 128.19999695 -321.20521545 281.82843781 33.40235901 -2 1 0 
167 4 1 -1.00000000 129.10000610 -321.63748932 284.13904572 36.30140305 -2 1 0 
168 4 1 -1.00000000 129.10000610 -323.62963867 287.13661957 35.15461349 -2 1 0 
169 4 2 1.00000000 128.19999695 -322.56246948 290.09918213 37.01853943 -2 1 0 
170 4 1 -1.00000000 129.10000610 -322.90702820 293.62164307 38.42949295 -2 1 0 
171 4 1 -1.00000000 129.10000610 -326.03892517 295.03415680 39.27510452 -2 1 0 
172 4 1 -1.00000000 129.10000610 -329.26880646 295.02073669 41.20676804 -2 1 0 
173 4 2 1.00000000 128.19999695 -329.80932617 291.42111969 42.38722610 -2 1 0 
174 4 1 -1.00000000 129.10000610 -329.56888580 288.43673706 40.27658081 -2 1 0 
175 4 1 -1.00000000 129.10000610 -331.27884674 285.35968781 39.66198730 -2 1 0 
176 4 2 1.00000000 128.19999695 -331.76486206 284.71492767 35.93303680 -2 1 0 
177 4 2 1.00000000 128.19999695 -332.21756744 287.71643829 33.15196991 -2 1 0 
178 4 2 1.00000000 128.19999695 -334.07286072 289.05580139 30.16424751 -2 1 0 
179 4 2 1.00000000 128.19999695 -333.52368927 287.56430817 26.89112854 -2 1 0 
180 4 2 1.00000000 128.19999695 -330.95600128 286.46987152 24.48546219 -2 1 0 
181 4 1 -1.00000000 129.10000610 -327.84545135 285.78929901 21.85939598 -2 1 0 
182 4 1 -1.00000000 129.10000610 -324.67253113 284.22068024 22.07412338 -2 1 0 
183 4 1 -1.00000000 129.10000610 -321.08971405 284.58303070 21.49596405 -2 1 0 
184 4 2 1.00000000 128.19999695 -318.55332947 281.61199188 21.07665253 -2 1 0 
185 4 2 1.00000000 128.19999695 -314.91457367 280.73854828 20.08072662 -2 1 0 
186 4 2 1.00000000 128.19999695 -312.05107880 281.44705963 17.73133659 -2 1 0 
187 4 1 -1.00000000 129.10000610 -309.19004059 283.80007172 16.85687828 -1 1 0 
188 4 2 1.00000000 128.19999695 -307.00769043 283.78568268 13.68744278 -1 1 0 
189 4 1 -1.00000000 129.10000610 -308.71246338 285.25628662 10.55713272 -1 1 0 
190 4 1 -1.00000000 129.10000610 -312.60808563 286.05712128 11.10614491 -2 1 0 
191 4 1 -1.00000000 129.10000610 -315.31205750 286.55747986 13.73668098 -2 1 0 
192 4 2 1.00000000 128.19999695 -317.03836823 289.70893860 12.51733112 -2 1 0 
193 4 1 -1.00000000 129.10000610 -316.60749054 292.44998169 15.04715824 -2 1 0 
194 4 2 1.00000000 128.19999695 -313.05960846 292.23993683 16.72110939 -2 1 0 
195 4 2 1.00000000 128.19999695 -310.91261292 295.19338989 15.26631451 -1 1 0 
196 4 2 1.00000000 128.19999695 -310.70227814 298.38936615 17.42920876 -1 1 0 
197 4 1 -1.00000000 129.10000610 -308.41024017 300.88329315 16.04146767 -1 1 0 
198 4 2 1.00000000 128.19999695 -306.82186127 300.60543060 12.58874512 -1 1 0 
199 4 1 -1.00000000 129.10000610 -306.80722809 301.82569122 8.99117756 -1 1 0 
200 4 2 1.00000000 128.19999695 -307.97422791 299.68115234 6.29325867 -1 1 0 
201 5 2 1.00000000 128.19999695 -327.07962799 -139.17263794 -150.28388214 -2 -1 -1 
202 5 1 -1.00000000 129.10000610 -324.52036285 -141.80222321 -149.96971512 -2 -1 -1 
203 5 2 1.00000000 128.19999695 -324.98109436 -145.33957291 -151.40148926 -2 -1 -1 
204 5 2 1.00000000 128.19999695 -327.74011230 -147.05154419 -153.47890091 -2 -1 -1 
205 5 2 1.00000000 128.19999695 -330.11079407 -147.55261612 -156.31636047 -2 -1 -1 
206 5 1 -1.00000000 129.10000610 -329.62570190 -149.51601791 -159.62879181 -2 -1 -1 
207 5 2 1.00000000 128.19999695 -330.90422058 -152.35936356 -161.75580597 -2 -1 -1 
208 5 1 -1.00000000 129.10000610 -333.04801178 -155.22420502 -163.61963654 -2 -1 -1 
209 5 1 -1.00000000 129.10000610 -334.13942719 -155.15273666 -167.19485474 -2 -1 -1 
210 5 1 -1.00000000 129.10000610 -332.48191833 -155.42853546 -170.46761703 -2 -1 -1 
211 5 2 1.00000000 128.19999695 -335.09716034 -155.99695206 -173.42110062 -2 -1 -1 
212 5 1 -1.00000000 129.10000610 -333.71800995 -157.90833664 -176.17790031 -2 -1 -1 
213 5 1 -1.00000000 129.10000610 -330.28779602 -158.59733582 -177.14269829 -2 -1 -1 
214 5 1 -1.00000000 129.10000610 -329.18808746 -155.47354889 -179.45757484 -2 -1 -1 
215 5 2 1.00000000 128.19999695 -325.97185516 -154.41984177 -180.83737373 -2 -1 -1 
216 5 2 1.00000000 128.19999695 -322.49697113 -153.23124313 -179.69753647 -2 -1 -1 
217 5 1 -1.00000000 129.10000610 -320.61658478 -154.96306992 -177.13343239 -2 -1 -1 
218 5 1 -1.00000000 129.10000610 -320.47773743 -155.94364929 -173.43547058 -2 -1 -1 
219 5 2 1.00000000 128.19999695 -317.34165192 -158.29804993 -172.68632507 -2 -1 -1 
220 5 1 -1.00000000 129.10000610 -316.69012451 -161.42955399 -174.71283340 -2 -1 -1 
221 5 1 -1.00000000 129.10000610 -318.01000214 -162.09081268 -178.11825562 -2 -1 -1 
222 5 1 -1.00000000 129.10000610 -319.98477173 -164.95292664 -177.39662361 -2 -1 -1 
223 5 2 1.00000000 128.19999695 -318.62380981 -168.34509659 -176.03349304 -2 -1 -1 
224 5 1 -1.00000000 129.10000610 -318.61763000 -172.45397186 -176.68673515 -2 -1 -1 
225 5 1 -1.00000000 129.10000610 -321.32704163 -174.78720474 -177.73564339 -2 -1 -1 
226 5 2 1.00000000 128.19999695 -323.00207520 -175.30361938 -180.88190842 -2 -1 -1 
227 5 2 1.00000000 128.19999695 -322.87657166 -179.30823326 -180.92045212 -2 -1 -1 
228 5 2 1.00000000 128.19999695 -320.09880829 -180.63319778 -183.33820724 -2 -1 -1 
229 5 2 1.00000000 128.19999695 -317.12694550 -182.68892288 -184.40766525 -2 -1 -1 
230 5 2 1.00000000 128.19999695 -315.05284119 -184.68449593 -187.09744263 -2 -1 -1 
231 5 1 -1.00000000 129.10000610 -311.47143555 -184.47787285 -187.73249054 -2 -1 -1 
232 5 1 -1.00000000 129.10000610 -308.62496948 -186.24991226 -189.86588860 -1 -1 -1 
233 5 1 -1.00000000 129.10000610 -310.57408905 -187.44435501 -193.14369583 -1 -1 -1 
234 5 2 1.00000000 128.19999695 -311.04799652 -186.99839783 -196.84162617 -2 -1 -1 
235 5 2 1.00000000 128.19999695 -312.64165497 -186.52113342 -200.24245453 -2 -1 -1 
236 5 2 1.00000000 128.19999695 -315.87179565 -188.46546364 -201.43746424 -2 -1 -1 
237 5 1 -1.00000000 129.10000610 -315.42510986 -192.25152493 -202.49227524 -2 -1 -1 
238 5 2 1.00000000 128.19999695 -314.48265076 -193.79892540 -205.81917274 -2 -1 -1 
239 5 1 -1.00000000 129.10000610 -315.68402863 -194.63313484 -209.19151795 -2 -1 -1 
240 5 1 -1.00000000 129.10000610 -315.92583466 -192.96459961 -212.45368195 -2 -1 -1 
241 5 1 -1.00000000 129.10000610 -314.46184540 -189.70952797 -212.31144524 -2 -1 -1 
242 5 2 1.00000000 128.19999695 -315.95088196 -186.21347237 -212.04607916 -2 -1 -1 
243 5 1 -1.00000000 129.10000610 -319.74240875 -187.75546646 -212.35783768 -2 -1 -1 
244 5 2 1.00000000 128.19999695 -323.22578430 -187.04095650 -211.06466556 -2 -1 -1 
245 5 2 1.00000000 128.19999695 -323.92184448 -186.53249550 -207.15292037 -2 -1 -1 
246 5 2 1.00000000 128.19999695 -326.55844879 -184.86186409 -205.16107130 -2 -1 -1 
247 5 1 -1.00000000 129.10000610 -327.42024231 -181.21015739 -206.08783901 -2 -1 -1 
248 5 2 1.00000000 128.19999695 -328.12286377 -177.43843079 -205.65782523 -2 -1 -1 
249 5 1 -1.00000000 129.10000610 -329.08221436 -173.85222626 -205.16489458 -2 -1 -1 
250 5 2 1.00000000 128.19999695 -330.72559357 -171.38964462 -203.30469704 -2 -1 -1 
251 6 2 1.00000000 128.19999695 399.15035915 -401.93552399 -47.35786057 2 -2 0 
252 6 1 -1.00000000 129.10000610 399.43072796 -398.33042908 -48.69248962 2 -2 0 
253 6 2 1.00000000 128.19999695 402.23969078 -396.35228157 -50.97243118 2 -2 0 
254 6 2 1.00000000 128.19999695 403.59939575 -394.19275856 -54.13583374 2 -2 0 
255 6 2 1.00000000 128.19999695 401.36311245 -392.61442184 -56.50133133 2 -2 0 
256 6 1 -1.00000000 129.10000610 399.88676262 -394.98628044 -59.00378036 2 -2 0 
257 6 2 1.00000000 128.19999695 397.63321114 -396.88810158 -61.44003296 2 -2 0 
258 6 1 -1.00000000 129.10000610 397.64062881 -399.29137230 -64.39840698 2 -2 0 
259 6 1 -1.00000000 129.10000610 396.60292244 -398.67077255 -67.79029083 2 -2 0 
260 6 1 -1.00000000 129.10000610 393.10706329 -397.96002579 -68.47438812 2 -2 0 
261 6 2 1.00000000 128.19999695 390.86642647 -397.53661346 -65.15780640 2 -2 0 
262 6 1 -1.00000000 129.10000610 389.96276665 -395.51383972 -61.94655991 2 -2 0 
263 6 1 -1.00000000 129.10000610 388.70722198 -391.81096077 -61.80747223 2 -2 0 
264 6 1 -1.00000000 129.10000610 388.65941238 -389.39405060 -59.01224899 2 -2 0 
265 6 2 1.00000000 128.19999695 390.98139191 -390.33540154 -56.37641144 2 -2 0 
266 6 2 1.00000000 128.19999695 390.99672890 -392.90692520 -54.25175476 2 -2 0 
267 6 1 -1.00000000 129.10000610 391.60793686 -396.49919701 -53.64398193 2 -2 0 
268 6 1 -1.00000000 129.10000610 390.15761566 -400.10620022 -51.97930145 2 -2 0 
269 6 2 1.00000000 128.19999695 388.20671082 -400.44299316 -48.84442520 2 -2 0 
270 6 1 -1.00000000 129.10000610 387.76133919 -403.03740883 -46.34176636 2 -2 0 
271 6 1 -1.00000000 129.10000610 386.12884140 -402.38207340 -42.77690506 2 -2 0 
272 6 1 -1.00000000 129.10000610 385.27839851 -399.25370216 -40.73035812 2 -2 0 
273 6 2 1.00000000 128.19999695 382.46728134 -396.59533310 -39.58819199 2 -2 0 
274 6 1 -1.00000000 129.10000610 381.69290924 -395.38176727 -36.19847488 2 -2 0 
275 6 1 -1.00000000 129.10000610 382.02892685 -394.31488037 -32.70299530 2 -2 0 
276 6 2 1.00000000 128.19999695 379.16701889 -391.37849045 -32.44102478 2 -2 0 
277 6 2 1.00000000 128.19999695 380.96832275 -389.25550461 -29.76153946 2 -2 0 
278 6 2 1.00000000 128.19999695 379.94294357 -387.73589706 -26.38001251 2 -2 0 
279 6 2 1.00000000 128.19999695 378.16855240 -389.48170090 -23.97019577 2 -2 0 
280 6 2 1.00000000 128.19999695 375.15399933 -392.27977371 -24.16298866 2 -2 0 
281 6 1 -1.00000000 129.10000610 374.61914825 -395.94149590 -25.80743599 2 -2 0 
282 6 1 -1.00000000 129.10000610 370.56932068 -396.50745964 -25.59600830 2 -2 0 
283 6 1 -1.00000000 129.10000610 367.52851486 -398.15253067 -25.10286522 2 -2 0 
284 6 2 1.00000000 128.19999695 364.91235352 -400.87326145 -25.90548134 2 -2 0 
285 6 2 1.00000000 128.19999695 361.17200470 -401.30261517 -25.25750160 2 -2 0 
286 6 2 1.00000000 128.19999695 359.41284561 -399.33010101 -22.68138885 2 -2 0 
287 6 1 -1.00000000 129.10000610 355.57120132 -399.52608490 -21.13795853 2 -2 0 
288 6 2 1.00000000 128.19999695 353.47131729 -396.54426575 -20.73391342 2 -2 0 
289 6 1 -1.00000000 129.10000610 353.53300858 -393.72403145 -23.09903908 2 -2 0 
290 6 1 -1.00000000 129.10000610 357.16125107 -393.05425072 -24.37260628 2 -2 0 
291 6 1 -1.00000000 129.10000610 358.27449417 -393.01528931 -27.96115303 2 -2 0 
292 6 2 1.00000000 128.19999695 357.10937881 -391.48209000 -31.11976624 2 -2 0 
293 6 1 -1.00000000 129.10000610 356.12655258 -390.55620193 -34.80502701 2 -2 0 
294 6 2 1.00000000 128.19999695 356.25883865 -393.82122231 -36.73823929 2 -2 0 
295 6 2 1.00000000 128.19999695 357.82891464 -395.29879761 -40.02018356 2 -2 0 
296 6 2 1.00000000 128.19999695 360.41357422 -397.11593819 -42.48184967 2 -2 0 
297 6 1 -1.00000000 129.10000610 360.90957642 -394.61076164 -45.28522873 2 -2 0 
298 6 2 1.00000000 128.19999695 361.99834061 -395.08873367 -48.95464706 2 -2 0 
299 6 1 -1.00000000 129.10000610 361.60603333 -395.60187912 -52.77769470 2 -2 0 
300 6 2 1.00000000 128.19999695 357.74474335 -394.91226196 -53.64389420 2 -2 0 
301 7 2 1.00000000 128.19999695 -127.39943695 -16.37911034 -944.64859772 -1 0 -5 
302 7 1 -1.00000000 129.10000610 -128.60865784 -20.28036499 -943.68283081 -1 0 -5 
303 7 2 1.00000000 128.19999695 -128.44652557 -22.24736404 -940.47204590 -1 0 -5 
304 7 2 1.00000000 128.19999695 -126.24723053 -25.06902313 -939.13404083 -1 0 -5 
305 7 2 1.00000000 128.19999695 -125.11380005 -25.43852997 -935.47875214 -1 0 -5 
306 7 1 -1.00000000 129.10000610 -121.59450531 -24.66951942 -935.01737213 -1 0 -5 
307 7 2 1.00000000 128.19999695 -119.90874481 -23.40102577 -937.91179657 -1 0 -5 
308 7 1 -1.00000000 129.10000610 -119.76819611 -23.97664070 -941.77579498 -1 0 -5 
309 7 1 -1.00000000 129.10000610 -120.44734955 -20.64308357 -943.63700104 -1 0 -5 
310 7 1 -1.00000000 129.10000610 -119.60658264 -18.68363953 -946.33126068 -1 0 -5 
311 7 2 1.00000000 128.19999695 -117.16334534 -16.01094627 -946.83116150 -1 0 -5 
312 7 1 -1.00000000 129.10000610 -115.69808197 -12.32918739 -946.75578308 -1 0 -5 
313 7 1 -1.00000000 129.10000610 -115.99352264 -9.91706467 -943.76217651 -1 0 -5 
314 7 1 -1.00000000 129.10000610 -116.29521179 -12.49183655 -940.89065552 -1 0 -5 
315 7 2 1.00000000 128.19999695 -118.70401001 -15.26596928 -940.14565277 -1 0 -5 
316 7 2 1.00000000 128.19999695 -121.83255005 -16.07614708 -938.12213135 -1 0 -5 
317 7 1 -1.00000000 129.10000610 -125.16331482 -15.75744724 -935.93050385 -1 0 -5 
318 7 1 -1.00000000 129.10000610 -125.86730194 -18.16841507 -932.85604095 -1 0 -4 
319 7 2 1.00000000 128.19999695 -126.83535004 -19.98045349 -929.80491638 -1 0 -4 
320 7 1 -1.00000000 129.10000610 -127.98664856 -23.82276344 -930.15113831 -1 0 -4 
321 7 1 -1.00000000 129.10000610 -131.01287079 -24.28847313 -931.58361053 -1 0 -4 
322 7 1 -1.00000000 129.10000610 -134.82694244 -24.14674568 -932.59464264 -1 0 -4 
323 7 2 1.00000000 128.19999695 -137.87353516 -21.42208099 -932.34426117 -1 0 -4 
324 7 1 -1.00000000 129.10000610 -141.13649750 -20.38001060 -933.88609314 -1 0 -5 
325 7 1 -1.00000000 129.10000610 -142.48337555 -20.91749001 -937.50231171 -1 0 -5 
326 7 2 1.00000000 128.19999695 -143.40802002 -18.21669769 -939.74382782 -1 0 -5 
327 7 2 1.00000000 128.19999695 -140.11985779 -16.62359238 -941.68307495 -1 0 -5 
328 7 2 1.00000000 128.19999695 -141.29346466 -16.94462967 -945.56565857 -1 0 -5 
329 7 2 1.00000000 128.19999695 -139.36967468 -19.58593178 -947.96288300 -1 0 -5 
330 7 2 1.00000000 128.19999695 -135.74765015 -20.72169495 -949.22616577 -1 0 -5 
331 7 1 -1.00000000 129.10000610 -134.38365173 -17.03990173 -950.53477478 -1 0 -5 
332 7 1 -1.00000000 129.10000610 -132.99661255 -13.92489624 -952.59407043 -1 0 -5 
333 7 1 -1.00000000 129.10000610 -135.45284271 -13.72460747 -955.20230865 -1 0 -5 
334 7 2 1.00000000 128.19999695 -139.35328674 -12.76368141 -954.31698608 -1 0 -5 
335 7 2 1.00000000 128.19999695 -140.91966248 -9.99073887 -952.09658813 -1 0 -5 
336 7 2 1.00000000 128.19999695 -142.88524628 -7.09017038 -950.66088104 -1 0 -5 
337 7 1 -1.00000000 129.10000610 -141.56603241 -6.89830875 -946.95201111 -1 0 -5 
338 7 2 1.00000000 128.19999695 -143.15206146 -5.62766266 -943.53703308 -1 0 -5 
339 7 1 -1.00000000 129.10000610 -145.77810287 -6.63884401 -940.64295197 -1 0 -5 
340 7 1 -1.00000000 129.10000610 -146.67024612 -8.68372631 -937.83450317 -1 0 -5 
341 7 1 -1.00000000 129.10000610 -147.25109100 -11.31492901 -934.92338562 -1 0 -5 
342 7 2 1.00000000 128.19999695 -148.81632614 -14.06195641 -932.53370667 -1 0 -4 
343 7 1 -1.00000000 129.10000610 -149.07056808 -17.14281273 -934.77552032 -1 0 -5 
344 7 2 1.00000000 128.19999695 -149.01924896 -21.34354973 -935.46736908 -1 0 -5 
345 7 2 1.00000000 128.19999695 -150.86542892 -23.64086342 -937.15351105 -1 0 -5 
346 7 2 1.00000000 128.19999695 -151.50486374 -25.48252296 -940.52530670 -1 0 -5 
347 7 1 -1.00000000 129.10000610 -149.68019485 -28.82828903 -941.95448303 -1 0 -5 
348 7 2 1.00000000 128.19999695 -145.91212082 -28.84064674 -942.06035614 -1 0 -5 
349 7 1 -1.00000000 129.10000610 -144.09162140 -31.01433182 -944.16259766 -1 0 -5 
350 7 2 1.00000000 128.19999695 -142.15748596 -32.60709763 -946.71551514 -1 0 -5 
351 8 2 1.00000000 128.19999695 31.53129196 -126.23690033 588.33168030 0 -1 3 
352 8 1 -1.00000000 129.10000610 33.67250443 -123.06520081 589.11469650 0 -1 3 
353 8 2 1.00000000 128.19999695 34.31515884 -120.13188934 591.06515884 0 -1 3 
354 8 2 1.00000000 128.19999695 38.10758209 -119.16983795 591.16462135 0 -1 3 
355 8 2 1.00000000 128.19999695 38.28897476 -115.69857025 592.57187080 0 -1 3 
356 8 1 -1.00000000 129.10000610 35.47681427 -113.28962708 593.72325516 0 -1 3 
357 8 2 1.00000000 128.19999695 36.54626846 -109.71125793 592.35454369 0 -1 3 
358 8 1 -1.00000000 129.10000610 39.50360870 -109.13919830 590.59233665 0 -1 3 
359 8 1 -1.00000000 129.10000610 42.92874527 -108.13018799 591.06466293 0 -1 3 
360 8 1 -1.00000000 129.10000610 45.37815475 -110.07554626 592.87734795 0 -1 3 
361 8 2 1.00000000 128.19999695 46.90563965 -112.87658691 594.90756989 0 -1 3 
362 8 1 -1.00000000 129.10000610 45.55456543 -114.62647247 597.83341599 0 -1 3 
363 8 1 -1.00000000 129.10000610 47.87562561 -114.12146759 600.68103409 0 -1 3 
364 8 1 -1.00000000 129.10000610 51.69747162 -114.32793427 600.86956787 0 -1 3 
365 8 2 1.00000000 128.19999695 53.89142227 -115.39698792 597.86872292 0 -1 3 
366 8 2 1.00000000 128.19999695 57.58764648 -116.25327301 597.57937241 0 -1 3 
367 8 1 -1.00000000 129.10000610 60.36764145 -116.79853821 599.65243530 0 -1 3 
368 8 1 -1.00000000 129.10000610 63.84538651 -117.81238556 599.53860474 0 -1 3 
369 8 2 1.00000000 128.19999695 65.95678711 -115.28508759 598.11927414 0 -1 3 
370 8 1 -1.00000000 129.10000610 64.38244629 -112.67621613 596.13112640 0 -1 3 
371 8 1 -1.00000000 129.10000610 65.09998322 -112.39888763 592.45808029 0 -1 3 