ITEM: TIMESTEP
40400000 
ITEM: NUMBER OF ATOMS 
25000 
ITEM: BOX BOUNDS pp pp pp 
-103.678017 103.678017 
-103.678017 103.678017 
-103.678017 103.678017 
ITEM: ATOMS id mol type q mass xu yu zu ix iy iz 
1 1 2 1.00000000 128.19999695 406.76551008 18.37549210 -378.76647186 2 0 -2 
2 1 1 -1.00000000 129.10000610 405.68542862 18.75826836 -375.24897385 2 0 -2 
3 1 2 1.00000000 128.19999695 404.35155869 21.81504631 -372.87548447 2 0 -2 
4 1 2 1.00000000 128.19999695 406.77926683 25.05587006 -372.83558273 2 0 -2 
5 1 2 1.00000000 128.19999695 408.44283295 28.38792038 -373.71301270 2 0 -2 
6 1 1 -1.00000000 129.10000610 408.89448214 31.71945953 -371.96270370 2 0 -2 
7 1 2 1.00000000 128.19999695 405.43255901 33.12350464 -371.03174973 2 0 -2 
8 1 1 -1.00000000 129.10000610 402.63458443 32.40232086 -373.52483749 2 0 -2 
9 1 1 -1.00000000 129.10000610 399.88948727 34.69989777 -373.90604782 2 0 -2 
10 1 1 -1.00000000 129.10000610 396.24968910 33.12425613 -373.95325089 2 0 -2 
11 1 2 1.00000000 128.19999695 394.59146118 30.08268166 -375.30647659 2 0 -2 
12 1 1 -1.00000000 129.10000610 394.67550659 26.39990044 -373.82237244 2 0 -2 
13 1 1 -1.00000000 129.10000610 397.71813965 24.14805222 -372.86205673 2 0 -2 
14 1 1 -1.00000000 129.10000610 398.25385857 22.42609787 -369.90166092 2 0 -2 
15 1 2 1.00000000 128.19999695 397.30420113 24.61251068 -366.72674179 2 0 -2 
16 1 2 1.00000000 128.19999695 394.59388351 27.54947090 -367.13841248 2 0 -2 
17 1 1 -1.00000000 129.10000610 391.43326569 28.14880562 -365.72588348 2 0 -2 
18 1 1 -1.00000000 129.10000610 390.39791489 27.79833794 -361.76754761 2 0 -2 
19 1 2 1.00000000 128.19999695 393.59820366 28.75595474 -359.17473984 2 0 -2 
20 1 1 -1.00000000 129.10000610 396.75751686 28.29198265 -357.16651154 2 0 -2 
21 1 1 -1.00000000 129.10000610 399.68379593 30.70987511 -355.82720947 2 0 -2 
22 1 1 -1.00000000 129.10000610 402.60772133 28.51619148 -355.83206177 2 0 -2 
23 1 2 1.00000000 128.19999695 402.41004944 25.50762177 -358.13332367 2 0 -2 
24 1 1 -1.00000000 129.10000610 402.65744495 24.76050758 -362.10810471 2 0 -2 
25 1 1 -1.00000000 129.10000610 404.06277657 27.66143036 -363.97882080 2 0 -2 
26 1 2 1.00000000 128.19999695 403.93272972 31.50494194 -364.74626541 2 0 -2 
27 1 2 1.00000000 128.19999695 402.59168243 34.92695999 -363.54858398 2 0 -2 
28 1 2 1.00000000 128.19999695 401.12348366 34.63900757 -359.90844727 2 0 -2 
29 1 2 1.00000000 128.19999695 399.93869877 36.33055496 -356.85292053 2 0 -2 
30 1 2 1.00000000 128.19999695 396.12804794 38.16804504 -357.27291489 2 0 -2 
31 1 1 -1.00000000 129.10000610 396.98388100 41.01984787 -354.81132507 2 0 -2 
32 1 1 -1.00000000 129.10000610 396.97828484 44.18241882 -357.41003036 2 0 -2 
33 1 1 -1.00000000 129.10000610 400.73461056 44.45333099 -358.04077530 2 0 -2 
34 1 2 1.00000000 128.19999695 403.45900154 46.72052002 -357.07651138 2 0 -2 
35 1 2 1.00000000 128.19999695 406.86177588 45.18058014 -355.64844131 2 0 -2 
36 1 2 1.00000000 128.19999695 409.62854671 43.39335632 -357.50304031 2 0 -2 
37 1 1 -1.00000000 129.10000610 412.79676330 45.14298630 -356.38603973 2 0 -2 
38 1 2 1.00000000 128.19999695 414.13683504 44.16785049 -352.78145599 2 0 -2 
39 1 1 -1.00000000 129.10000610 415.13864231 41.94347763 -349.23513794 2 0 -2 
40 1 1 -1.00000000 129.10000610 418.58488512 40.32065582 -349.31063843 2 0 -2 
41 1 1 -1.00000000 129.10000610 422.00575352 39.67313766 -348.04248810 2 0 -2 
42 1 2 1.00000000 128.19999695 424.48583794 37.43826675 -345.75299072 2 0 -2 
43 1 1 -1.00000000 129.10000610 427.61938095 39.70408249 -345.43896484 2 0 -2 
44 1 2 1.00000000 128.19999695 429.80789280 42.21300125 -347.70155334 2 0 -2 
45 1 2 1.00000000 128.19999695 431.60337639 44.34806061 -350.38684082 2 0 -2 
46 1 2 1.00000000 128.19999695 434.93700600 43.65705872 -352.33087540 2 0 -2 
47 1 1 -1.00000000 129.10000610 437.14220047 41.67054367 -354.97938919 2 0 -2 
48 1 2 1.00000000 128.19999695 436.51097488 42.15785599 -358.85412979 2 0 -2 
49 1 1 -1.00000000 129.10000610 438.88738441 44.43754196 -360.55501556 2 0 -2 
50 1 2 1.00000000 128.19999695 442.64117241 43.79969025 -360.79310989 2 0 -2 
51 2 2 1.00000000 128.19999695 496.78386688 461.13836288 -216.74246788 2 2 -1 
52 2 1 -1.00000000 129.10000610 499.11751556 463.34909821 -215.21009302 2 2 -1 
53 2 2 1.00000000 128.19999695 502.10105133 463.22518539 -212.95013571 2 2 -1 
54 2 2 1.00000000 128.19999695 504.13982391 461.66326523 -210.68706036 2 2 -1 
55 2 2 1.00000000 128.19999695 507.18441772 460.22829437 -212.57254648 2 2 -1 
56 2 1 -1.00000000 129.10000610 508.99376678 458.64373016 -215.31783438 2 2 -1 
57 2 2 1.00000000 128.19999695 507.12536621 457.31188965 -218.53200531 2 2 -1 
58 2 1 -1.00000000 129.10000610 507.45178986 453.71605301 -220.08332539 2 2 -1 
59 2 1 -1.00000000 129.10000610 505.09226227 453.69581985 -223.42114639 2 2 -1 
60 2 1 -1.00000000 129.10000610 505.29589844 457.30876923 -225.00853157 2 2 -1 
61 2 2 1.00000000 128.19999695 504.16387177 460.51060486 -223.59078598 2 2 -1 
62 2 1 -1.00000000 129.10000610 502.02968597 462.96222305 -221.55857849 2 2 -1 
63 2 1 -1.00000000 129.10000610 502.76912689 465.12958145 -218.74149609 2 2 -1 
64 2 1 -1.00000000 129.10000610 504.53244781 468.48719025 -217.70744038 2 2 -1 
65 2 2 1.00000000 128.19999695 507.62154388 469.37549973 -219.67283440 2 2 -1 
66 2 2 1.00000000 128.19999695 510.30508423 469.63885117 -222.38205242 2 2 -1 
67 2 1 -1.00000000 129.10000610 513.66603851 471.20108795 -223.09260178 2 2 -1 
68 2 1 -1.00000000 129.10000610 517.39524078 471.55673981 -224.58367157 2 2 -1 
69 2 2 1.00000000 128.19999695 520.00649261 470.16425323 -226.96443367 3 2 -1 
70 2 1 -1.00000000 129.10000610 520.53642273 472.96688461 -229.73411560 3 2 -1 
71 2 1 -1.00000000 129.10000610 519.84781647 474.00451279 -233.37586212 3 2 -1 
72 2 1 -1.00000000 129.10000610 517.65611267 474.64305878 -236.57221413 2 2 -1 
73 2 2 1.00000000 128.19999695 518.94160461 475.00036240 -239.86471176 3 2 -1 
74 2 1 -1.00000000 129.10000610 522.36502075 476.47132874 -239.77476501 3 2 -1 
75 2 1 -1.00000000 129.10000610 524.28276062 479.79948425 -241.05263519 3 2 -1 
76 2 2 1.00000000 128.19999695 525.49346161 481.63358307 -237.85848236 3 2 -1 
77 2 2 1.00000000 128.19999695 524.16650391 479.90719604 -234.63405418 3 2 -1 
78 2 2 1.00000000 128.19999695 520.74506378 479.86972809 -232.32820511 3 2 -1 
79 2 2 1.00000000 128.19999695 517.13777924 479.96421051 -232.75440216 2 2 -1 
80 2 2 1.00000000 128.19999695 513.64984131 480.09204102 -231.38493729 2 2 -1 
81 2 1 -1.00000000 129.10000610 512.10612488 480.69622040 -227.95027733 2 2 -1 
82 2 1 -1.00000000 129.10000610 508.65594482 482.30530548 -227.80573082 2 2 -1 
83 2 1 -1.00000000 129.10000610 507.19873810 480.58489990 -230.62594032 2 2 -1 
84 2 2 1.00000000 128.19999695 506.00329590 481.07070923 -234.11827660 2 2 -1 
85 2 2 1.00000000 128.19999695 502.76889801 482.35173035 -235.80823326 2 2 -1 
86 2 2 1.00000000 128.19999695 499.03895569 482.78260803 -235.03953934 2 2 -1 
87 2 1 -1.00000000 129.10000610 496.56259918 485.43502808 -234.13726616 2 2 -1 
88 2 2 1.00000000 128.19999695 497.71101379 489.28874207 -234.60421371 2 2 -1 
89 2 1 -1.00000000 129.10000610 500.42794037 491.48397064 -235.22625351 2 2 -1 
90 2 1 -1.00000000 129.10000610 501.03334808 495.23523712 -234.66693306 2 2 -1 
91 2 1 -1.00000000 129.10000610 500.72506714 497.47273254 -237.90475845 2 2 -1 
92 2 2 1.00000000 128.19999695 499.18251038 498.70444489 -241.44466400 2 2 -1 
93 2 1 -1.00000000 129.10000610 495.80064392 497.73062897 -243.23820114 2 2 -1 
94 2 2 1.00000000 128.19999695 494.86444092 497.62254333 -246.80849838 2 2 -1 
95 2 2 1.00000000 128.19999695 493.20137787 494.96991730 -249.07445526 2 2 -1 
96 2 2 1.00000000 128.19999695 490.35839081 492.52911377 -248.08110046 2 2 -1 
97 2 1 -1.00000000 129.10000610 489.48650360 489.28253174 -249.21401978 2 2 -1 
98 2 2 1.00000000 128.19999695 487.93824768 486.26238251 -247.29351425 2 2 -1 
99 2 1 -1.00000000 129.10000610 488.05300903 482.79064178 -248.99457932 2 2 -1 
100 2 2 1.00000000 128.19999695 490.38851166 481.37638092 -251.24937439 2 2 -1 
101 3 2 1.00000000 128.19999695 344.44155121 -56.88218689 -22.24008369 2 0 0 
102 3 1 -1.00000000 129.10000610 344.48302460 -52.91573334 -21.35975456 2 0 0 
103 3 2 1.00000000 128.19999695 342.64048004 -50.02438736 -20.09405518 2 0 0 
104 3 2 1.00000000 128.19999695 340.38768005 -50.53725052 -16.82859993 2 0 0 
105 3 2 1.00000000 128.19999695 340.46130371 -48.59830093 -13.58464432 2 0 0 
106 3 1 -1.00000000 129.10000610 337.74044037 -47.11186600 -10.91846943 2 0 0 
107 3 2 1.00000000 128.19999695 336.18533325 -43.90997696 -12.31821251 2 0 0 
108 3 1 -1.00000000 129.10000610 336.78811646 -40.36278534 -10.40142822 2 0 0 
109 3 1 -1.00000000 129.10000610 334.97670746 -37.26637650 -10.09383297 2 0 0 
110 3 1 -1.00000000 129.10000610 333.54524231 -34.44522858 -12.24629402 2 0 0 
111 3 2 1.00000000 128.19999695 332.77783966 -31.37949562 -10.22906876 2 0 0 
112 3 1 -1.00000000 129.10000610 329.48703003 -29.56664658 -9.42667961 2 0 0 
113 3 1 -1.00000000 129.10000610 329.38845062 -26.20135880 -7.21148348 2 0 0 
114 3 1 -1.00000000 129.10000610 328.73738098 -23.99623489 -10.35784435 2 0 0 
115 3 2 1.00000000 128.19999695 325.02161407 -24.51193237 -11.68833256 2 0 0 
116 3 2 1.00000000 128.19999695 323.05368042 -26.88461113 -9.10804081 2 0 0 
117 3 1 -1.00000000 129.10000610 323.32817078 -30.51493263 -9.45267963 2 0 0 
118 3 1 -1.00000000 129.10000610 319.63445282 -31.55435944 -8.31634521 2 0 0 
119 3 2 1.00000000 128.19999695 316.21970367 -31.03273964 -6.75634480 2 0 0 
120 3 1 -1.00000000 129.10000610 316.04547882 -33.67836761 -3.91629195 2 0 0 
121 3 1 -1.00000000 129.10000610 314.99333954 -35.24307251 -0.76417971 2 0 0 
122 3 1 -1.00000000 129.10000610 317.33563232 -36.79048538 1.95068252 2 0 0 
123 3 2 1.00000000 128.19999695 316.00434875 -35.83256149 5.38860512 2 0 0 
124 3 1 -1.00000000 129.10000610 313.81492615 -36.83427811 8.41894245 2 0 0 
125 3 1 -1.00000000 129.10000610 315.63625336 -35.85473251 11.24370575 2 0 0 
126 3 2 1.00000000 128.19999695 317.72634888 -35.81331253 14.17604446 2 0 0 
127 3 2 1.00000000 128.19999695 315.75303650 -37.78971100 16.81360817 2 0 0 
128 3 2 1.00000000 128.19999695 312.20323944 -36.19788742 16.50251198 2 0 0 
129 3 2 1.00000000 128.19999695 311.65501404 -32.87988663 17.47429466 2 0 0 
130 3 2 1.00000000 128.19999695 310.00376892 -29.49876785 16.68643570 1 0 0 
131 3 1 -1.00000000 129.10000610 311.09232330 -25.89850998 15.98916531 2 0 0 
132 3 1 -1.00000000 129.10000610 312.00315094 -25.14915085 19.54701042 2 0 0 
133 3 1 -1.00000000 129.10000610 309.38070679 -25.66448021 22.31747055 1 0 0 
134 3 2 1.00000000 128.19999695 309.98905945 -24.87426567 26.24650764 1 0 0 
135 3 2 1.00000000 128.19999695 313.07092285 -23.63600922 27.85475540 2 0 0 
136 3 2 1.00000000 128.19999695 315.98638153 -26.13014412 28.79821587 2 0 0 
137 3 1 -1.00000000 129.10000610 316.26708221 -30.11575127 29.52895355 2 0 0 
138 3 2 1.00000000 128.19999695 317.65354156 -33.46820831 30.06867790 2 0 0 
139 3 1 -1.00000000 129.10000610 317.02890778 -36.09835434 27.78623962 2 0 0 
140 3 1 -1.00000000 129.10000610 318.34800720 -39.30208206 25.89346313 2 0 0 
141 3 1 -1.00000000 129.10000610 317.24637604 -42.73756790 27.16599655 2 0 0 
142 3 2 1.00000000 128.19999695 316.79816437 -44.25985718 30.76664162 2 0 0 
143 3 1 -1.00000000 129.10000610 320.06854248 -44.81727219 33.24115753 2 0 0 
144 3 2 1.00000000 128.19999695 323.70583344 -45.29766464 32.52981186 2 0 0 
145 3 2 1.00000000 128.19999695 326.36871338 -42.65364838 32.92492676 2 0 0 
146 3 2 1.00000000 128.19999695 329.69638824 -44.32824326 33.66672134 2 0 0 
147 3 1 -1.00000000 129.10000610 331.43667603 -44.49383163 36.88463974 2 0 0 
148 3 2 1.00000000 128.19999695 331.19915009 -42.71595764 40.33984756 2 0 0 
149 3 1 -1.00000000 129.10000610 331.50289154 -38.81321716 41.02060318 2 0 0 
150 3 2 1.00000000 128.19999695 331.56922913 -36.61415863 43.77281570 2 0 0 
151 4 2 1.00000000 128.19999695 -297.76576996 262.22974014 7.40029716 -1 1 0 
152 4 1 -1.00000000 129.10000610 -300.20622253 261.94614410 9.91436195 -1 1 0 
153 4 2 1.00000000 128.19999695 -303.60986328 263.48466110 9.20870018 -1 1 0 
154 4 2 1.00000000 128.19999695 -307.54464722 263.40797424 10.34155273 -1 1 0 
155 4 2 1.00000000 128.19999695 -310.00386810 260.93058395 11.49204922 -1 1 0 
156 4 1 -1.00000000 129.10000610 -311.43917847 258.67601013 8.92678070 -2 1 0 
157 4 2 1.00000000 128.19999695 -310.10543823 258.82529831 5.05602932 -1 1 0 
158 4 1 -1.00000000 129.10000610 -309.28495789 261.28928757 2.06552744 -1 1 0 
159 4 1 -1.00000000 129.10000610 -310.22279358 264.91484070 3.70839977 -1 1 0 
160 4 1 -1.00000000 129.10000610 -312.34762573 268.40595245 3.48053598 -2 1 0 
161 4 2 1.00000000 128.19999695 -314.69774628 271.43415833 2.06737328 -2 1 0 
162 4 1 -1.00000000 129.10000610 -312.67915344 274.69221497 1.00015867 -2 1 0 
163 4 1 -1.00000000 129.10000610 -313.44839478 278.11760712 2.79397559 -2 1 0 
164 4 1 -1.00000000 129.10000610 -312.81761932 277.49053192 6.45891762 -2 1 0 
165 4 2 1.00000000 128.19999695 -309.94826508 275.23891449 7.42379189 -1 1 0 
166 4 2 1.00000000 128.19999695 -306.79171753 274.52528381 10.12411594 -1 1 0 
167 4 1 -1.00000000 129.10000610 -304.87020111 275.41371918 13.34760666 -1 1 0 
168 4 1 -1.00000000 129.10000610 -302.93463898 276.30434418 16.47226524 -1 1 0 
169 4 2 1.00000000 128.19999695 -302.40924835 279.74905396 16.29563141 -1 1 0 
170 4 1 -1.00000000 129.10000610 -301.63671112 283.44038391 16.28377533 -1 1 0 
171 4 1 -1.00000000 129.10000610 -302.90417480 286.28898621 18.02473640 -1 1 0 
172 4 1 -1.00000000 129.10000610 -306.03552246 286.01525879 20.49382973 -1 1 0 
173 4 2 1.00000000 128.19999695 -305.21450043 284.57655334 24.19805145 -1 1 0 
174 4 1 -1.00000000 129.10000610 -308.06890106 286.67303467 25.84214401 -1 1 0 
175 4 1 -1.00000000 129.10000610 -311.60860443 285.31759644 26.57034874 -2 1 0 
176 4 2 1.00000000 128.19999695 -315.25605774 285.62448883 26.89513397 -2 1 0 
177 4 2 1.00000000 128.19999695 -316.62052155 282.49141693 25.12251854 -2 1 0 
178 4 2 1.00000000 128.19999695 -316.11003113 279.13286591 25.00857544 -2 1 0 
179 4 2 1.00000000 128.19999695 -314.21877289 276.27713776 25.58014107 -2 1 0 
180 4 2 1.00000000 128.19999695 -314.66262054 273.15165710 23.06378555 -2 1 0 
181 4 1 -1.00000000 129.10000610 -312.61110687 274.71579742 20.00008774 -2 1 0 
182 4 1 -1.00000000 129.10000610 -311.19757843 278.38698578 18.99043083 -2 1 0 
183 4 1 -1.00000000 129.10000610 -311.27568054 282.10003662 18.91571236 -2 1 0 
184 4 2 1.00000000 128.19999695 -310.59129333 284.19578552 15.76060009 -1 1 0 
185 4 2 1.00000000 128.19999695 -307.38227844 284.47641754 13.80824089 -1 1 0 
186 4 2 1.00000000 128.19999695 -306.98793030 281.97540283 10.95779705 -1 1 0 
187 4 1 -1.00000000 129.10000610 -304.89643097 281.14015198 7.95748520 -1 1 0 
188 4 2 1.00000000 128.19999695 -301.08479309 281.07228851 7.35112667 -1 1 0 
189 4 1 -1.00000000 129.10000610 -298.76222992 284.06257629 7.83886909 -1 1 0 
190 4 1 -1.00000000 129.10000610 -300.83109283 287.47468567 8.70435715 -1 1 0 
191 4 1 -1.00000000 129.10000610 -298.14733124 290.12371063 7.58994198 -1 1 0 
192 4 2 1.00000000 128.19999695 -294.50523376 289.05267334 7.66254950 -1 1 0 
193 4 1 -1.00000000 129.10000610 -292.40416718 287.95668793 10.99280834 -1 1 0 
194 4 2 1.00000000 128.19999695 -292.84784698 289.44107819 14.63441753 -1 1 0 
195 4 2 1.00000000 128.19999695 -296.77618408 290.15629578 15.55927563 -1 1 0 
196 4 2 1.00000000 128.19999695 -299.68898773 292.30966187 16.17400932 -1 1 0 
197 4 1 -1.00000000 129.10000610 -302.02220917 293.19496155 19.45786095 -1 1 0 
198 4 2 1.00000000 128.19999695 -299.95211792 292.70403290 22.60917282 -1 1 0 
199 4 1 -1.00000000 129.10000610 -298.74483490 289.45195770 21.72972298 -1 1 0 
200 4 2 1.00000000 128.19999695 -297.56052399 287.00719452 23.67644119 -1 1 0 
201 5 2 1.00000000 128.19999695 -316.42915344 -137.81791687 -146.81350327 -2 -1 -1 
202 5 1 -1.00000000 129.10000610 -318.43595123 -134.91709900 -145.24782944 -2 -1 -1 
203 5 2 1.00000000 128.19999695 -316.84358978 -131.52991486 -147.16405106 -2 -1 -1 
204 5 2 1.00000000 128.19999695 -317.84411621 -128.10969543 -148.17023468 -2 -1 -1 
205 5 2 1.00000000 128.19999695 -318.44054413 -124.25598145 -147.99215698 -2 -1 -1 
206 5 1 -1.00000000 129.10000610 -316.80222321 -123.48979950 -144.60616684 -2 -1 -1 
207 5 2 1.00000000 128.19999695 -318.44333649 -125.26705933 -141.42070770 -2 -1 -1 
208 5 1 -1.00000000 129.10000610 -315.63139343 -127.54688263 -140.43262482 -2 -1 -1 
209 5 1 -1.00000000 129.10000610 -311.79832458 -128.37689209 -140.16120148 -2 -1 -1 
210 5 1 -1.00000000 129.10000610 -309.83525848 -127.31514740 -143.40343475 -1 -1 -1 
211 5 2 1.00000000 128.19999695 -309.20580292 -130.98177338 -144.90150070 -1 -1 -1 
212 5 1 -1.00000000 129.10000610 -307.46546936 -133.41201782 -146.44596863 -1 -1 -1 
213 5 1 -1.00000000 129.10000610 -309.35279846 -136.32960510 -147.97002792 -1 -1 -1 
214 5 1 -1.00000000 129.10000610 -310.40758514 -137.94844818 -151.33318710 -1 -1 -1 
215 5 2 1.00000000 128.19999695 -309.01741028 -141.67066956 -150.41823578 -1 -1 -1 
216 5 2 1.00000000 128.19999695 -310.47617340 -145.34669495 -150.79182053 -1 -1 -1 
217 5 1 -1.00000000 129.10000610 -310.30653381 -147.57279205 -154.01001740 -1 -1 -1 
218 5 1 -1.00000000 129.10000610 -312.88745880 -148.62417984 -156.60711670 -2 -1 -1 
219 5 2 1.00000000 128.19999695 -316.24087524 -149.83205414 -157.31096268 -2 -1 -1 
220 5 1 -1.00000000 129.10000610 -316.51835632 -153.45241547 -156.75810623 -2 -1 -1 
221 5 1 -1.00000000 129.10000610 -318.49595642 -156.10279083 -159.12491608 -2 -1 -1 
222 5 1 -1.00000000 129.10000610 -320.89270020 -153.83584595 -161.13351822 -2 -1 -1 
223 5 2 1.00000000 128.19999695 -323.56192780 -152.52172470 -163.41222763 -2 -1 -1 
224 5 1 -1.00000000 129.10000610 -323.76099396 -151.29207993 -167.09955215 -2 -1 -1 
225 5 1 -1.00000000 129.10000610 -321.03594208 -151.43053055 -169.84355545 -2 -1 -1 
226 5 2 1.00000000 128.19999695 -317.30661774 -151.99166489 -170.46000671 -2 -1 -1 
227 5 2 1.00000000 128.19999695 -315.90756226 -153.49527359 -173.86150742 -2 -1 -1 
228 5 2 1.00000000 128.19999695 -316.42971039 -155.86025238 -176.83375359 -2 -1 -1 
229 5 2 1.00000000 128.19999695 -316.04939270 -158.90493011 -179.40227127 -2 -1 -1 
230 5 2 1.00000000 128.19999695 -313.17599487 -159.44018936 -181.53093529 -2 -1 -1 
231 5 1 -1.00000000 129.10000610 -310.33861542 -156.91486359 -180.84524155 -1 -1 -1 
232 5 1 -1.00000000 129.10000610 -309.46992493 -155.15140915 -177.73242188 -1 -1 -1 
233 5 1 -1.00000000 129.10000610 -308.48078156 -152.86279297 -175.02613831 -1 -1 -1 
234 5 2 1.00000000 128.19999695 -308.14471436 -150.89804840 -171.88654709 -1 -1 -1 
235 5 2 1.00000000 128.19999695 -306.61969757 -149.95748520 -168.31940079 -1 -1 -1 
236 5 2 1.00000000 128.19999695 -304.88487244 -149.90110397 -165.16484833 -1 -1 -1 
237 5 1 -1.00000000 129.10000610 -307.66860199 -151.01020050 -162.66616821 -1 -1 -1 
238 5 2 1.00000000 128.19999695 -309.52597046 -153.93598175 -160.93774796 -1 -1 -1 
239 5 1 -1.00000000 129.10000610 -310.45067596 -155.91917801 -164.04779434 -1 -1 -1 
240 5 1 -1.00000000 129.10000610 -307.12818909 -156.26063919 -166.13635254 -1 -1 -1 
241 5 1 -1.00000000 129.10000610 -304.42196655 -158.31501389 -164.23907852 -1 -1 -1 
242 5 2 1.00000000 128.19999695 -302.08742523 -160.56807327 -162.87883377 -1 -1 -1 
243 5 1 -1.00000000 129.10000610 -298.83729553 -158.83829498 -164.07781219 -1 -1 -1 
244 5 2 1.00000000 128.19999695 -297.01436615 -155.37410355 -164.78515244 -1 -1 -1 
245 5 2 1.00000000 128.19999695 -293.57251740 -155.62361908 -162.81827927 -1 -1 -1 
246 5 2 1.00000000 128.19999695 -292.75212860 -156.74578857 -159.28116608 -1 -1 -1 
247 5 1 -1.00000000 129.10000610 -292.55760193 -153.27521896 -157.36672974 -1 -1 -1 
248 5 2 1.00000000 128.19999695 -292.19306946 -150.28795242 -155.30446625 -1 -1 -1 
249 5 1 -1.00000000 129.10000610 -294.93947601 -150.74262619 -152.44745636 -1 -1 -1 
250 5 2 1.00000000 128.19999695 -298.79891968 -151.62848663 -153.13237000 -1 -1 -1 
251 6 2 1.00000000 128.19999695 392.60870552 -395.60058212 -55.98787689 2 -2 0 
252 6 1 -1.00000000 129.10000610 389.87424660 -393.00881195 -54.10880661 2 -2 0 
253 6 2 1.00000000 128.19999695 389.46974182 -390.83753777 -51.33715057 2 -2 0 
254 6 2 1.00000000 128.19999695 386.84128380 -390.27141953 -48.28319931 2 -2 0 
255 6 2 1.00000000 128.19999695 386.29605675 -391.17000389 -44.33712006 2 -2 0 
256 6 1 -1.00000000 129.10000610 384.91259766 -391.98549461 -41.01388550 2 -2 0 
257 6 2 1.00000000 128.19999695 383.43235779 -395.39625359 -39.72477722 2 -2 0 
258 6 1 -1.00000000 129.10000610 379.75227737 -396.96770859 -38.88043213 2 -2 0 
259 6 1 -1.00000000 129.10000610 376.51191711 -394.96696281 -37.98168945 2 -2 0 
260 6 1 -1.00000000 129.10000610 373.18361664 -394.09499741 -38.04417801 2 -2 0 
261 6 2 1.00000000 128.19999695 369.31702423 -394.25584793 -38.67765808 2 -2 0 
262 6 1 -1.00000000 129.10000610 365.92589188 -395.73504639 -40.53394699 2 -2 0 
263 6 1 -1.00000000 129.10000610 364.34806061 -393.64747429 -43.48748779 2 -2 0 
264 6 1 -1.00000000 129.10000610 361.16259003 -392.40349197 -44.29467773 2 -2 0 
265 6 2 1.00000000 128.19999695 358.01412201 -392.53094101 -42.45125198 2 -2 0 
266 6 2 1.00000000 128.19999695 358.70072937 -395.12727547 -39.12632751 2 -2 0 
267 6 1 -1.00000000 129.10000610 355.30371094 -395.39112854 -38.13407516 2 -2 0 
268 6 1 -1.00000000 129.10000610 351.89596939 -396.61100197 -37.13513947 2 -2 0 
269 6 2 1.00000000 128.19999695 348.78038788 -394.26136398 -37.71131897 2 -2 0 
270 6 1 -1.00000000 129.10000610 345.55735016 -394.13263702 -39.11299896 2 -2 0 
271 6 1 -1.00000000 129.10000610 342.65219879 -395.31293869 -37.78997421 2 -2 0 
272 6 1 -1.00000000 129.10000610 342.70460510 -395.10950279 -34.11583328 2 -2 0 
273 6 2 1.00000000 128.19999695 344.98338318 -393.66217995 -31.64291954 2 -2 0 
274 6 1 -1.00000000 129.10000610 344.15351868 -393.64686394 -27.88083076 2 -2 0 
275 6 1 -1.00000000 129.10000610 342.62293243 -397.15924644 -26.33975601 2 -2 0 
276 6 2 1.00000000 128.19999695 343.58678436 -400.80854225 -26.11436844 2 -2 0 
277 6 2 1.00000000 128.19999695 343.54553986 -402.19491673 -22.39815331 2 -2 0 
278 6 2 1.00000000 128.19999695 343.28299713 -404.13770008 -19.17961884 2 -2 0 
279 6 2 1.00000000 128.19999695 344.53338623 -403.37864208 -15.24706936 2 -2 0 
280 6 2 1.00000000 128.19999695 348.20028687 -403.61299229 -14.19599247 2 -2 0 
281 6 1 -1.00000000 129.10000610 348.91108704 -400.57742310 -12.48597527 2 -2 0 
282 6 1 -1.00000000 129.10000610 352.01154327 -400.41130066 -9.99099731 2 -2 0 
283 6 1 -1.00000000 129.10000610 354.38355255 -397.69521523 -8.86177635 2 -2 0 
284 6 2 1.00000000 128.19999695 356.60955811 -396.16273117 -11.44498920 2 -2 0 
285 6 2 1.00000000 128.19999695 358.24682617 -392.89265060 -11.51920986 2 -2 0 
286 6 2 1.00000000 128.19999695 361.25160980 -390.85036469 -12.81857586 2 -2 0 
287 6 1 -1.00000000 129.10000610 360.38309479 -386.94186020 -12.57832909 2 -2 0 
288 6 2 1.00000000 128.19999695 361.89171600 -383.27042961 -12.06691837 2 -2 0 
289 6 1 -1.00000000 129.10000610 361.86552048 -379.85819626 -13.56456089 2 -2 0 
290 6 1 -1.00000000 129.10000610 359.62732315 -376.71108246 -13.02547741 2 -2 0 
291 6 1 -1.00000000 129.10000610 358.83207703 -374.95387268 -16.58553696 2 -2 0 
292 6 2 1.00000000 128.19999695 360.81110382 -372.75612259 -18.42819023 2 -2 0 
293 6 1 -1.00000000 129.10000610 363.63084412 -370.89075089 -16.44308281 2 -2 0 
294 6 2 1.00000000 128.19999695 364.02075958 -367.08402252 -16.89834595 2 -2 0 
295 6 2 1.00000000 128.19999695 367.44206619 -365.50437927 -15.85788441 2 -2 0 
296 6 2 1.00000000 128.19999695 370.28968811 -368.09018707 -14.08956242 2 -2 0 
297 6 1 -1.00000000 129.10000610 372.92140198 -368.08146286 -16.83295441 2 -2 0 
298 6 2 1.00000000 128.19999695 374.01586533 -365.01733780 -19.01524162 2 -2 0 
299 6 1 -1.00000000 129.10000610 375.69063187 -365.75794220 -22.59902954 2 -2 0 
300 6 2 1.00000000 128.19999695 372.69366837 -365.53952408 -25.00191498 2 -2 0 
301 7 2 1.00000000 128.19999695 -125.16228485 -27.38841629 -963.64218903 -1 0 -5 
302 7 1 -1.00000000 129.10000610 -123.78721619 -29.93667984 -961.17974091 -1 0 -5 
303 7 2 1.00000000 128.19999695 -120.60021210 -31.95216179 -960.84121704 -1 0 -5 
304 7 2 1.00000000 128.19999695 -117.21118927 -33.62564850 -959.87078857 -1 0 -5 
305 7 2 1.00000000 128.19999695 -113.74754333 -33.77728653 -957.90502930 -1 0 -5 
306 7 1 -1.00000000 129.10000610 -114.24294281 -36.91738510 -955.51786804 -1 0 -5 
307 7 2 1.00000000 128.19999695 -116.48890686 -40.02968979 -954.35509491 -1 0 -5 
308 7 1 -1.00000000 129.10000610 -114.77400208 -40.90225983 -951.05923462 -1 0 -5 
309 7 1 -1.00000000 129.10000610 -113.14916992 -44.09029770 -949.45316315 -1 0 -5 
310 7 1 -1.00000000 129.10000610 -114.97039795 -46.44538879 -947.31469727 -1 0 -5 
311 7 2 1.00000000 128.19999695 -118.44799805 -45.40053940 -947.52625275 -1 0 -5 
312 7 1 -1.00000000 129.10000610 -122.05520630 -43.49493408 -946.23000336 -1 0 -5 
313 7 1 -1.00000000 129.10000610 -124.56838989 -46.27191162 -947.49194336 -1 0 -5 
314 7 1 -1.00000000 129.10000610 -127.35946655 -44.00239563 -948.66320801 -1 0 -5 
315 7 2 1.00000000 128.19999695 -130.61647034 -43.58506012 -950.19909668 -1 0 -5 
316 7 2 1.00000000 128.19999695 -131.47380066 -44.68972397 -953.82077789 -1 0 -5 
317 7 1 -1.00000000 129.10000610 -133.66870880 -44.33880234 -956.72215271 -1 0 -5 
318 7 1 -1.00000000 129.10000610 -133.01863098 -44.10907745 -960.29913330 -1 0 -5 
319 7 2 1.00000000 128.19999695 -133.96308899 -41.97811508 -963.45507050 -1 0 -5 
320 7 1 -1.00000000 129.10000610 -133.72571564 -43.88353348 -966.96441650 -1 0 -5 
321 7 1 -1.00000000 129.10000610 -132.95570374 -46.55978775 -969.44850922 -1 0 -5 
322 7 1 -1.00000000 129.10000610 -134.79229736 -49.26851273 -967.72708130 -1 0 -5 
323 7 2 1.00000000 128.19999695 -133.65748596 -53.10561752 -968.08625031 -1 0 -5 
324 7 1 -1.00000000 129.10000610 -134.19971466 -54.24335098 -964.69080353 -1 0 -5 
325 7 1 -1.00000000 129.10000610 -133.98800659 -55.69462204 -961.35502625 -1 0 -5 
326 7 2 1.00000000 128.19999695 -136.50530243 -54.07018661 -958.73382568 -1 0 -5 
327 7 2 1.00000000 128.19999695 -136.99790192 -50.55274963 -957.39986420 -1 0 -5 
328 7 2 1.00000000 128.19999695 -139.27575684 -47.70598221 -956.60754395 -1 0 -5 
329 7 2 1.00000000 128.19999695 -140.53132629 -44.02967072 -955.55091858 -1 0 -5 
330 7 2 1.00000000 128.19999695 -143.76471329 -41.81862640 -954.94808197 -1 0 -5 
331 7 1 -1.00000000 129.10000610 -146.11713028 -42.66857147 -952.09089661 -1 0 -5 
332 7 1 -1.00000000 129.10000610 -147.07406998 -41.08892059 -948.80422211 -1 0 -5 
333 7 1 -1.00000000 129.10000610 -150.02415848 -38.18330002 -948.86887360 -1 0 -5 
334 7 2 1.00000000 128.19999695 -152.86048126 -40.71833420 -950.09884644 -1 0 -5 
335 7 2 1.00000000 128.19999695 -153.54960251 -44.64524460 -949.23425293 -1 0 -5 
336 7 2 1.00000000 128.19999695 -154.77003479 -47.14860153 -946.85922241 -1 0 -5 
337 7 1 -1.00000000 129.10000610 -152.51745224 -46.15539551 -943.81932068 -1 0 -5 
338 7 2 1.00000000 128.19999695 -149.94566727 -46.26020813 -941.13985443 -1 0 -5 
339 7 1 -1.00000000 129.10000610 -151.54296112 -44.61311340 -937.71899414 -1 0 -5 
340 7 1 -1.00000000 129.10000610 -154.26650620 -43.40315628 -936.10080719 -1 0 -5 
341 7 1 -1.00000000 129.10000610 -156.62444305 -44.09286118 -933.13108826 -1 0 -5 
342 7 2 1.00000000 128.19999695 -158.27448654 -40.63567352 -931.33802795 -1 0 -4 
343 7 1 -1.00000000 129.10000610 -155.71549606 -38.08044052 -930.21247864 -1 0 -4 
344 7 2 1.00000000 128.19999695 -153.98035812 -34.74250412 -928.83301544 -1 0 -4 
345 7 2 1.00000000 128.19999695 -155.07499313 -34.04766464 -925.29901886 -1 0 -4 
346 7 2 1.00000000 128.19999695 -158.26497650 -33.57638168 -923.18609619 -1 0 -4 
347 7 1 -1.00000000 129.10000610 -159.00870514 -31.91648102 -919.79589844 -1 0 -4 
348 7 2 1.00000000 128.19999695 -157.87871933 -31.37747955 -915.92935944 -1 0 -4 
349 7 1 -1.00000000 129.10000610 -157.66301346 -33.20527267 -912.63105011 -1 0 -4 
350 7 2 1.00000000 128.19999695 -156.01015091 -33.49612427 -909.18629456 -1 0 -4 
351 8 2 1.00000000 128.19999695 16.46587753 -111.54240417 566.06283569 0 -1 3 
352 8 1 -1.00000000 129.10000610 20.13506889 -111.36994934 564.48328018 0 -1 3 
353 8 2 1.00000000 128.19999695 22.57273865 -111.27169800 561.60740662 0 -1 3 
354 8 2 1.00000000 128.19999695 25.87460136 -110.59410858 563.18133926 0 -1 3 
355 8 2 1.00000000 128.19999695 27.18567848 -112.54180908 565.96946335 0 -1 3 
356 8 1 -1.00000000 129.10000610 30.45450974 -111.27552032 567.83802795 0 -1 3 
357 8 2 1.00000000 128.19999695 32.88507843 -108.41146851 567.78667068 0 -1 3 
358 8 1 -1.00000000 129.10000610 33.86843109 -107.06800079 571.02673340 0 -1 3 
359 8 1 -1.00000000 129.10000610 35.12892914 -105.79404449 574.30264664 0 -1 3 
360 8 1 -1.00000000 129.10000610 32.66564560 -107.97095490 576.58706665 0 -1 3 
361 8 2 1.00000000 128.19999695 30.46544838 -110.85319519 575.80979919 0 -1 3 
362 8 1 -1.00000000 129.10000610 31.61155510 -114.11576843 574.50386810 0 -1 3 
363 8 1 -1.00000000 129.10000610 31.57897758 -116.56971741 577.42333984 0 -1 3 
364 8 1 -1.00000000 129.10000610 33.69808960 -116.27216339 580.69161606 0 -1 3 
365 8 2 1.00000000 128.19999695 36.66772842 -113.98048401 581.13399887 0 -1 3 
366 8 2 1.00000000 128.19999695 40.21501923 -113.44761658 582.12557983 0 -1 3 
367 8 1 -1.00000000 129.10000610 42.33982468 -115.31691742 584.43601990 0 -1 3 
368 8 1 -1.00000000 129.10000610 42.57344818 -113.20248413 587.78574371 0 -1 3 
369 8 2 1.00000000 128.19999695 43.01246643 -113.80210114 591.52071571 0 -1 3 
370 8 1 -1.00000000 129.10000610 43.83298492 -112.26445770 594.71266174 0 -1 3 
371 8 1 -1.00000000 129.10000610 47.54702759 -110.44475555 595.30187988 0 -1 3 