ITEM: TIMESTEP
41050000 
ITEM: NUMBER OF ATOMS 
25000 
ITEM: BOX BOUNDS pp pp pp 
-103.678017 103.678017 
-103.678017 103.678017 
-103.678017 103.678017 
ITEM: ATOMS id mol type q mass xu yu zu ix iy iz 
1 1 2 1.00000000 128.19999695 379.61959839 1.91242886 -279.90657806 2 0 -1 
2 1 1 -1.00000000 129.10000610 378.91621399 4.31858206 -277.08209229 2 0 -1 
3 1 2 1.00000000 128.19999695 378.36603546 7.54414320 -279.20800018 2 0 -1 
4 1 2 1.00000000 128.19999695 379.14723206 11.46641159 -278.25391388 2 0 -1 
5 1 2 1.00000000 128.19999695 377.30046463 14.19052982 -276.07615662 2 0 -1 
6 1 1 -1.00000000 129.10000610 378.26560593 17.22395325 -274.05518341 2 0 -1 
7 1 2 1.00000000 128.19999695 381.55673981 18.22501564 -275.69725800 2 0 -1 
8 1 1 -1.00000000 129.10000610 381.35758209 22.00383568 -276.84335327 2 0 -1 
9 1 1 -1.00000000 129.10000610 382.64102173 24.87576485 -275.18294525 2 0 -1 
10 1 1 -1.00000000 129.10000610 384.70051384 26.28233719 -272.53819275 2 0 -1 
11 1 2 1.00000000 128.19999695 384.41361427 29.45229530 -270.85280609 2 0 -1 
12 1 1 -1.00000000 129.10000610 386.48821068 32.72866440 -271.59375763 2 0 -1 
13 1 1 -1.00000000 129.10000610 385.08572006 36.29059601 -272.45748138 2 0 -1 
14 1 1 -1.00000000 129.10000610 381.44773865 35.50712967 -271.32538986 2 0 -1 
15 1 2 1.00000000 128.19999695 379.82173157 34.33096313 -268.17381668 2 0 -1 
16 1 2 1.00000000 128.19999695 375.95663452 34.48770523 -266.80402756 2 0 -1 
17 1 1 -1.00000000 129.10000610 375.49283218 31.04952049 -264.63867950 2 0 -1 
18 1 1 -1.00000000 129.10000610 372.44507980 31.98396111 -262.12669754 2 0 -1 
19 1 2 1.00000000 128.19999695 368.84479523 34.12824631 -262.54475021 2 0 -1 
20 1 1 -1.00000000 129.10000610 365.62785721 32.22240448 -262.46941376 2 0 -1 
21 1 1 -1.00000000 129.10000610 362.13992691 33.19830704 -261.78448105 2 0 -1 
22 1 1 -1.00000000 129.10000610 359.25247955 31.16620255 -260.33544922 2 0 -1 
23 1 2 1.00000000 128.19999695 358.42368698 27.61181259 -261.00467300 2 0 -1 
24 1 1 -1.00000000 129.10000610 358.36038589 25.19906235 -263.95787811 2 0 -1 
25 1 1 -1.00000000 129.10000610 361.66357422 24.52863884 -265.68015289 2 0 -1 
26 1 2 1.00000000 128.19999695 364.70038986 24.96557045 -263.59306717 2 0 -1 
27 1 2 1.00000000 128.19999695 366.01610184 21.76455307 -262.94119263 2 0 -1 
28 1 2 1.00000000 128.19999695 366.07255554 17.99164391 -263.21279907 2 0 -1 
29 1 2 1.00000000 128.19999695 367.50557327 14.74775887 -261.86223984 2 0 -1 
30 1 2 1.00000000 128.19999695 365.93870544 11.22738457 -261.64825058 2 0 -1 
31 1 1 -1.00000000 129.10000610 367.34367371 7.87733364 -259.97039032 2 0 -1 
32 1 1 -1.00000000 129.10000610 371.01300430 7.40366411 -261.09989548 2 0 -1 
33 1 1 -1.00000000 129.10000610 371.09984207 7.04662991 -264.75703049 2 0 -1 
34 1 2 1.00000000 128.19999695 372.50606537 3.66062617 -265.82202530 2 0 -1 
35 1 2 1.00000000 128.19999695 371.72166824 -0.10300473 -266.98361969 2 0 -1 
36 1 2 1.00000000 128.19999695 373.20710754 -3.23590636 -267.87509155 2 0 -1 
37 1 1 -1.00000000 129.10000610 377.26690292 -3.74619269 -268.04573441 2 0 -1 
38 1 2 1.00000000 128.19999695 380.95546722 -4.60680246 -268.17865753 2 0 -1 
39 1 1 -1.00000000 129.10000610 384.55200768 -2.74270201 -268.32218933 2 0 -1 
40 1 1 -1.00000000 129.10000610 384.63900948 -0.30083862 -271.40632629 2 0 -1 
41 1 1 -1.00000000 129.10000610 386.63755798 2.16231441 -273.50727081 2 0 -1 
42 1 2 1.00000000 128.19999695 386.85978889 5.98249435 -274.19926453 2 0 -1 
43 1 1 -1.00000000 129.10000610 384.54466820 6.89967442 -271.12027740 2 0 -1 
44 1 2 1.00000000 128.19999695 382.52792358 5.63636208 -268.30991745 2 0 -1 
45 1 2 1.00000000 128.19999695 379.50394821 7.61048412 -267.95257568 2 0 -1 
46 1 2 1.00000000 128.19999695 376.69413757 7.06659365 -270.48882294 2 0 -1 
47 1 1 -1.00000000 129.10000610 374.96627808 4.02490520 -272.26129913 2 0 -1 
48 1 2 1.00000000 128.19999695 371.75622559 2.60535908 -273.66050720 2 0 -1 
49 1 1 -1.00000000 129.10000610 368.99010086 4.15124941 -271.90525818 2 0 -1 
50 1 2 1.00000000 128.19999695 367.03096771 5.92674780 -269.30269623 2 0 -1 
51 2 2 1.00000000 128.19999695 500.66191864 355.45634460 -245.98529053 2 2 -1 
52 2 1 -1.00000000 129.10000610 498.19137573 358.05354309 -246.68613434 2 2 -1 
53 2 2 1.00000000 128.19999695 495.64869690 360.60050583 -248.62688446 2 2 -1 
54 2 2 1.00000000 128.19999695 495.06299591 360.72080231 -252.27529526 2 2 -1 
55 2 2 1.00000000 128.19999695 495.81764221 362.18093109 -255.43337631 2 2 -1 
56 2 1 -1.00000000 129.10000610 494.30332184 365.49148941 -256.20446014 2 2 -1 
57 2 2 1.00000000 128.19999695 492.70694733 365.98632812 -259.50694656 2 2 -1 
58 2 1 -1.00000000 129.10000610 489.08743286 364.75477219 -260.92397308 2 2 -1 
59 2 1 -1.00000000 129.10000610 485.74996948 363.01455307 -261.65937042 2 2 -1 
60 2 1 -1.00000000 129.10000610 482.28870392 361.68803406 -260.85051346 2 2 -1 
61 2 2 1.00000000 128.19999695 478.66363144 362.69836807 -261.71599579 2 2 -1 
62 2 1 -1.00000000 129.10000610 476.91839218 361.69001007 -258.22793198 2 2 -1 
63 2 1 -1.00000000 129.10000610 473.49474335 362.36606598 -256.13012314 2 2 -1 
64 2 1 -1.00000000 129.10000610 472.98426437 359.57272720 -253.59183121 2 2 -1 
65 2 2 1.00000000 128.19999695 474.81798935 359.33942413 -250.17679596 2 2 -1 
66 2 2 1.00000000 128.19999695 476.24620438 362.36272430 -248.53947830 2 2 -1 
67 2 1 -1.00000000 129.10000610 475.67472458 364.86599731 -245.61604691 2 2 -1 
68 2 1 -1.00000000 129.10000610 472.85811234 367.12203979 -244.82214355 2 2 -1 
69 2 2 1.00000000 128.19999695 472.50803757 368.09076309 -241.17440796 2 2 -1 
70 2 1 -1.00000000 129.10000610 472.29477692 370.90040588 -238.71871185 2 2 -1 
71 2 1 -1.00000000 129.10000610 473.08673477 371.31108093 -235.08882141 2 2 -1 
72 2 1 -1.00000000 129.10000610 474.69515991 373.24364471 -231.89355278 2 2 -1 
73 2 2 1.00000000 128.19999695 472.89476395 373.73955154 -228.36295128 2 2 -1 
74 2 1 -1.00000000 129.10000610 474.29440689 373.16693497 -225.08901787 2 2 -1 
75 2 1 -1.00000000 129.10000610 473.08304977 372.94485092 -221.61480808 2 2 -1 
76 2 2 1.00000000 128.19999695 471.40453339 371.68594360 -218.37911224 2 2 -1 
77 2 2 1.00000000 128.19999695 474.22078705 370.65947342 -216.09472847 2 2 -1 
78 2 2 1.00000000 128.19999695 476.47657394 368.20968628 -214.75492620 2 2 -1 
79 2 2 1.00000000 128.19999695 477.72539902 364.81244659 -216.12424564 2 2 -1 
80 2 2 1.00000000 128.19999695 478.94595337 365.51348877 -219.74103546 2 2 -1 
81 2 1 -1.00000000 129.10000610 477.62684250 363.67730331 -222.78618717 2 2 -1 
82 2 1 -1.00000000 129.10000610 473.85854721 363.44429779 -222.94653320 2 2 -1 
83 2 1 -1.00000000 129.10000610 472.17537689 361.10761642 -220.65590763 2 2 -1 
84 2 2 1.00000000 128.19999695 469.87397003 362.99061203 -218.25259113 2 2 -1 
85 2 2 1.00000000 128.19999695 468.10542679 365.77125931 -220.22084332 2 2 -1 
86 2 2 1.00000000 128.19999695 467.69452667 367.57442474 -223.70201683 2 2 -1 
87 2 1 -1.00000000 129.10000610 466.23962784 369.54031372 -226.72087860 2 2 -1 
88 2 2 1.00000000 128.19999695 462.85821915 368.49505997 -227.97150993 2 2 -1 
89 2 1 -1.00000000 129.10000610 460.46239090 366.29823685 -225.79121208 2 2 -1 
90 2 1 -1.00000000 129.10000610 458.23255539 368.35186005 -223.40259933 2 2 -1 
91 2 1 -1.00000000 129.10000610 454.64742279 367.81427002 -222.04617977 2 2 -1 
92 2 2 1.00000000 128.19999695 452.74548721 364.49377060 -221.63367176 2 2 -1 
93 2 1 -1.00000000 129.10000610 450.72200012 364.71113205 -225.24786949 2 2 -1 
94 2 2 1.00000000 128.19999695 448.04178619 367.35168076 -224.34960938 2 2 -1 
95 2 2 1.00000000 128.19999695 446.42456436 367.95409393 -221.07022762 2 2 -1 
96 2 2 1.00000000 128.19999695 443.62365913 370.67618179 -220.87184429 2 2 -1 
97 2 1 -1.00000000 129.10000610 440.49423981 371.38476181 -223.26244068 2 2 -1 
98 2 2 1.00000000 128.19999695 439.79231453 369.31571960 -226.62847328 2 2 -1 
99 2 1 -1.00000000 129.10000610 436.24857330 368.77949905 -227.76271439 2 2 -1 
100 2 2 1.00000000 128.19999695 434.41775703 365.64892960 -226.61842918 2 2 -1 
101 3 2 1.00000000 128.19999695 371.84921265 -72.27220917 8.54716396 2 0 0 
102 3 1 -1.00000000 129.10000610 371.24958038 -75.12229156 11.12093925 2 0 0 
103 3 2 1.00000000 128.19999695 369.74573517 -76.46627045 14.33203793 2 0 0 
104 3 2 1.00000000 128.19999695 369.36507416 -80.08432007 14.75332069 2 0 0 
105 3 2 1.00000000 128.19999695 369.00804901 -83.95870209 15.42832184 2 0 0 
106 3 1 -1.00000000 129.10000610 369.24090958 -87.45055389 17.00527191 2 0 0 
107 3 2 1.00000000 128.19999695 371.83352661 -89.15023041 19.02535820 2 0 0 
108 3 1 -1.00000000 129.10000610 373.27001190 -87.74139404 22.02349663 2 0 0 
109 3 1 -1.00000000 129.10000610 374.76021957 -89.42699432 25.15459824 2 0 0 
110 3 1 -1.00000000 129.10000610 376.40883255 -92.96245575 24.43913841 2 0 0 
111 3 2 1.00000000 128.19999695 379.88627243 -94.95045471 24.14865685 2 0 0 
112 3 1 -1.00000000 129.10000610 382.95435143 -94.09599304 26.29225731 2 0 0 
113 3 1 -1.00000000 129.10000610 382.57125854 -96.61206818 29.49377441 2 0 0 
114 3 1 -1.00000000 129.10000610 384.47219276 -98.62508392 31.79629517 2 0 0 
115 3 2 1.00000000 128.19999695 387.00837135 -99.30766296 34.12483215 2 0 0 
116 3 2 1.00000000 128.19999695 390.33422279 -99.59646606 36.14881134 2 0 0 
117 3 1 -1.00000000 129.10000610 389.01846695 -98.17070007 39.71040726 2 0 0 
118 3 1 -1.00000000 129.10000610 387.67164612 -102.16731262 40.80059814 2 0 0 
119 3 2 1.00000000 128.19999695 385.92968941 -105.37884521 41.75452042 2 -1 0 
120 3 1 -1.00000000 129.10000610 383.69485092 -107.55823517 39.40578079 2 -1 0 
121 3 1 -1.00000000 129.10000610 381.49982834 -108.45230865 36.83706284 2 -1 0 
122 3 1 -1.00000000 129.10000610 380.47263718 -106.57433319 33.60417175 2 -1 0 
123 3 2 1.00000000 128.19999695 378.71540070 -103.83301544 32.30023956 2 -1 0 
124 3 1 -1.00000000 129.10000610 379.91503906 -100.89181519 33.93329620 2 0 0 
125 3 1 -1.00000000 129.10000610 379.72075653 -101.59350586 37.80669403 2 0 0 
126 3 2 1.00000000 128.19999695 381.66626358 -99.33657074 40.54657364 2 0 0 
127 3 2 1.00000000 128.19999695 382.85894966 -95.66253662 40.92629623 2 0 0 
128 3 2 1.00000000 128.19999695 384.85428238 -93.50297546 43.14674759 2 0 0 
129 3 2 1.00000000 128.19999695 385.34344673 -93.63209534 46.97170639 2 0 0 
130 3 2 1.00000000 128.19999695 382.45114899 -95.07502747 48.86524582 2 0 0 
131 3 1 -1.00000000 129.10000610 379.63426971 -97.38651276 48.53600311 2 0 0 
132 3 1 -1.00000000 129.10000610 376.57445526 -96.88887787 46.50286865 2 0 0 
133 3 1 -1.00000000 129.10000610 374.56950378 -97.81958008 43.57038498 2 0 0 
134 3 2 1.00000000 128.19999695 371.59075165 -95.91590881 42.26964951 2 0 0 
135 3 2 1.00000000 128.19999695 372.15845108 -93.81670380 39.26764679 2 0 0 
136 3 2 1.00000000 128.19999695 371.87991333 -95.11933136 35.55978775 2 0 0 
137 3 1 -1.00000000 129.10000610 368.76426697 -94.01649475 33.46513748 2 0 0 
138 3 2 1.00000000 128.19999695 367.75557327 -94.81892395 29.65777016 2 0 0 
139 3 1 -1.00000000 129.10000610 370.78503036 -96.14282227 27.47578812 2 0 0 
140 3 1 -1.00000000 129.10000610 371.16724014 -97.34274292 23.79854774 2 0 0 
141 3 1 -1.00000000 129.10000610 370.03803253 -97.99701691 20.22658539 2 0 0 
142 3 2 1.00000000 128.19999695 367.17953491 -99.50931549 18.43235397 2 0 0 
143 3 1 -1.00000000 129.10000610 367.11657333 -102.74483490 19.96938324 2 0 0 
144 3 2 1.00000000 128.19999695 369.29743576 -105.98069000 21.04088593 2 -1 0 
145 3 2 1.00000000 128.19999695 367.70289993 -109.37084961 22.04724121 2 -1 0 
146 3 2 1.00000000 128.19999695 367.68724060 -111.93032837 24.70278740 2 -1 0 
147 3 1 -1.00000000 129.10000610 368.45856094 -115.87754822 24.63632202 2 -1 0 
148 3 2 1.00000000 128.19999695 369.00328827 -119.03734589 22.88138771 2 -1 0 
149 3 1 -1.00000000 129.10000610 370.23031235 -118.36923218 19.27968597 2 -1 0 
150 3 2 1.00000000 128.19999695 372.56784058 -115.43612671 19.55028534 2 -1 0 
151 4 2 1.00000000 128.19999695 -288.77661133 351.06798553 -11.25020313 -1 2 0 
152 4 1 -1.00000000 129.10000610 -285.06934357 350.68196869 -10.28140450 -1 2 0 
153 4 2 1.00000000 128.19999695 -283.02408600 354.18636322 -10.47058296 -1 2 0 
154 4 2 1.00000000 128.19999695 -279.38790894 352.78570557 -9.73438644 -1 2 0 
155 4 2 1.00000000 128.19999695 -277.52519226 350.87329483 -12.29137135 -1 2 0 
156 4 1 -1.00000000 129.10000610 -275.08161926 347.79131317 -13.35624504 -1 2 0 
157 4 2 1.00000000 128.19999695 -272.20574951 345.60020447 -15.09469128 -1 2 0 
158 4 1 -1.00000000 129.10000610 -269.85226440 346.19305420 -12.19263840 -1 2 0 
159 4 1 -1.00000000 129.10000610 -269.89397430 345.46218109 -8.26950169 -1 2 0 
160 4 1 -1.00000000 129.10000610 -266.93372726 347.42313385 -6.65648508 -1 2 0 
161 4 2 1.00000000 128.19999695 -264.03792191 346.65248108 -9.06848049 -1 2 0 
162 4 1 -1.00000000 129.10000610 -261.14675140 347.15364838 -11.20269871 -1 2 0 
163 4 1 -1.00000000 129.10000610 -260.51983643 344.20154572 -13.77865696 -1 2 0 
164 4 1 -1.00000000 129.10000610 -259.79756165 341.59860992 -16.13234520 -1 2 0 
165 4 2 1.00000000 128.19999695 -259.37712860 337.64335632 -15.58349419 -1 2 0 
166 4 2 1.00000000 128.19999695 -259.36682129 333.92074585 -14.95548630 -1 2 0 
167 4 1 -1.00000000 129.10000610 -258.80294418 331.58848572 -11.96890259 -1 2 0 
168 4 1 -1.00000000 129.10000610 -257.20768356 330.01537323 -9.11057949 -1 2 0 
169 4 2 1.00000000 128.19999695 -256.39007568 332.53617859 -6.35054111 -1 2 0 
170 4 1 -1.00000000 129.10000610 -254.82217789 330.36649323 -3.52196860 -1 2 0 
171 4 1 -1.00000000 129.10000610 -255.04822540 329.73686981 0.31338924 -1 2 0 
172 4 1 -1.00000000 129.10000610 -254.73625183 327.99047852 3.81887579 -1 2 0 
173 4 2 1.00000000 128.19999695 -253.29302979 327.09956360 7.15482283 -1 2 0 
174 4 1 -1.00000000 129.10000610 -255.80233765 325.64811707 9.55176735 -1 2 0 
175 4 1 -1.00000000 129.10000610 -258.59685135 323.80216217 10.75875473 -1 2 0 
176 4 2 1.00000000 128.19999695 -261.61048508 321.59909058 10.43741608 -1 2 0 
177 4 2 1.00000000 128.19999695 -260.76273727 318.28524017 12.00896740 -1 2 0 
178 4 2 1.00000000 128.19999695 -263.33525085 317.08227539 14.56789780 -1 2 0 
179 4 2 1.00000000 128.19999695 -263.59930420 313.68318176 16.36526489 -1 2 0 
180 4 2 1.00000000 128.19999695 -261.85713196 310.36085510 17.24670219 -1 1 0 
181 4 1 -1.00000000 129.10000610 -262.75078201 309.24150848 20.64489937 -1 1 0 
182 4 1 -1.00000000 129.10000610 -265.97169495 306.97348785 20.86848450 -1 1 0 
183 4 1 -1.00000000 129.10000610 -268.12440872 306.93831635 17.75205803 -1 1 0 
184 4 2 1.00000000 128.19999695 -269.11223984 306.95980072 13.96073151 -1 1 0 
185 4 2 1.00000000 128.19999695 -271.15748978 304.30683136 12.42452335 -1 1 0 
186 4 2 1.00000000 128.19999695 -274.11788940 304.07183838 14.65181637 -1 1 0 
187 4 1 -1.00000000 129.10000610 -274.86761475 306.29483795 17.62113571 -1 1 0 
188 4 2 1.00000000 128.19999695 -274.11861420 304.66601562 21.04660225 -1 1 0 
189 4 1 -1.00000000 129.10000610 -276.71470642 304.28822327 23.59181976 -1 1 0 
190 4 1 -1.00000000 129.10000610 -279.36247253 302.57285309 25.76267242 -1 1 0 
191 4 1 -1.00000000 129.10000610 -277.30165863 302.57847595 29.15995789 -1 1 0 
192 4 2 1.00000000 128.19999695 -275.05763245 305.16060638 31.40218735 -1 1 0 
193 4 1 -1.00000000 129.10000610 -275.37899780 309.08807373 30.59197998 -1 1 0 
194 4 2 1.00000000 128.19999695 -278.96793365 309.66095734 29.72442436 -1 1 0 
195 4 2 1.00000000 128.19999695 -282.47452545 307.96134186 29.02830505 -1 1 0 
196 4 2 1.00000000 128.19999695 -284.22243500 304.74613953 28.43293953 -1 1 0 
197 4 1 -1.00000000 129.10000610 -287.94594574 305.98296356 27.89278984 -1 1 0 
198 4 2 1.00000000 128.19999695 -291.72496033 305.20686340 26.89717484 -1 1 0 
199 4 1 -1.00000000 129.10000610 -292.38190460 302.62610626 24.33120918 -1 1 0 
200 4 2 1.00000000 128.19999695 -294.34301758 300.48606110 21.60867882 -1 1 0 
201 5 2 1.00000000 128.19999695 -325.10296631 -237.45610046 -228.00396919 -2 -1 -1 
202 5 1 -1.00000000 129.10000610 -323.91899872 -234.35853386 -229.87160110 -2 -1 -1 
203 5 2 1.00000000 128.19999695 -325.46967316 -233.85878944 -233.00236511 -2 -1 -1 
204 5 2 1.00000000 128.19999695 -327.75257874 -232.70923042 -235.40529442 -2 -1 -1 
205 5 2 1.00000000 128.19999695 -331.67690277 -232.91665649 -236.39237785 -2 -1 -1 
206 5 1 -1.00000000 129.10000610 -335.12971497 -234.52602005 -235.84782410 -2 -1 -1 
207 5 2 1.00000000 128.19999695 -338.17330170 -232.70346451 -237.28030205 -2 -1 -1 
208 5 1 -1.00000000 129.10000610 -338.13663483 -229.12762642 -238.41928291 -2 -1 -1 
209 5 1 -1.00000000 129.10000610 -337.79793549 -226.23696327 -235.90392303 -2 -1 -1 
210 5 1 -1.00000000 129.10000610 -335.03145599 -224.27575684 -237.29678154 -2 -1 -1 
211 5 2 1.00000000 128.19999695 -332.99417877 -222.84328175 -240.31605530 -2 -1 -1 
212 5 1 -1.00000000 129.10000610 -332.99102783 -220.63364029 -243.53829956 -2 -1 -1 
213 5 1 -1.00000000 129.10000610 -336.18728638 -221.10302448 -245.51644135 -2 -1 -1 
214 5 1 -1.00000000 129.10000610 -339.77665710 -220.51546955 -247.45975113 -2 -1 -1 
215 5 2 1.00000000 128.19999695 -342.72005463 -222.80496597 -247.45038605 -2 -1 -1 
216 5 2 1.00000000 128.19999695 -346.23747253 -222.24281502 -247.44911575 -2 -1 -1 
217 5 1 -1.00000000 129.10000610 -348.01100159 -221.69914341 -250.76641464 -2 -1 -1 
218 5 1 -1.00000000 129.10000610 -346.75369263 -219.93560028 -253.62591553 -2 -1 -1 
219 5 2 1.00000000 128.19999695 -346.78664398 -216.37382603 -255.44095612 -2 -1 -1 
220 5 1 -1.00000000 129.10000610 -348.00614929 -216.76818275 -259.03294754 -2 -1 -1 
221 5 1 -1.00000000 129.10000610 -344.76087952 -216.32273388 -261.58062744 -2 -1 -1 
222 5 1 -1.00000000 129.10000610 -345.80772400 -212.81046295 -262.85616302 -2 -1 -1 
223 5 2 1.00000000 128.19999695 -345.36890411 -208.71687663 -263.02157974 -2 -1 -1 
224 5 1 -1.00000000 129.10000610 -346.72707367 -205.46514726 -263.75975037 -2 -1 -1 
225 5 1 -1.00000000 129.10000610 -346.11964417 -202.60686207 -261.69565582 -2 -1 -1 
226 5 2 1.00000000 128.19999695 -345.50533295 -198.98721313 -262.07841873 -2 -1 -1 
227 5 2 1.00000000 128.19999695 -345.85816193 -197.01895428 -258.76822281 -2 -1 -1 
228 5 2 1.00000000 128.19999695 -348.35910034 -194.93419743 -257.21057510 -2 -1 -1 
229 5 2 1.00000000 128.19999695 -352.21103287 -195.26284122 -258.47145844 -2 -1 -1 
230 5 2 1.00000000 128.19999695 -352.83557510 -195.71057224 -262.22182465 -2 -1 -1 
231 5 1 -1.00000000 129.10000610 -350.02780914 -193.97724342 -264.18756104 -2 -1 -1 
232 5 1 -1.00000000 129.10000610 -347.03129578 -193.83399677 -266.73781586 -2 -1 -1 
233 5 1 -1.00000000 129.10000610 -348.13713837 -191.19458199 -269.18583679 -2 -1 -1 
234 5 2 1.00000000 128.19999695 -351.43878174 -191.56889057 -271.23404312 -2 -1 -1 
235 5 2 1.00000000 128.19999695 -352.05238342 -194.67545033 -273.58760071 -2 -1 -1 
236 5 2 1.00000000 128.19999695 -355.47395706 -196.80554867 -274.22946930 -2 -1 -1 
237 5 1 -1.00000000 129.10000610 -358.68149567 -194.68707466 -274.73578644 -2 -1 -1 
238 5 2 1.00000000 128.19999695 -360.44658661 -192.00467968 -276.76222992 -2 -1 -1 
239 5 1 -1.00000000 129.10000610 -359.40299988 -188.40358734 -277.07453918 -2 -1 -1 
240 5 1 -1.00000000 129.10000610 -362.42026138 -186.12653160 -278.15733337 -2 -1 -1 
241 5 1 -1.00000000 129.10000610 -365.11272049 -186.30582428 -281.21176910 -2 -1 -1 
242 5 2 1.00000000 128.19999695 -368.01151657 -185.39822388 -283.45815277 -2 -1 -1 
243 5 1 -1.00000000 129.10000610 -371.53617096 -186.48179436 -281.95320892 -2 -1 -1 
244 5 2 1.00000000 128.19999695 -370.96767044 -185.36207390 -278.22413635 -2 -1 -1 
245 5 2 1.00000000 128.19999695 -368.01350784 -186.77788162 -276.27950287 -2 -1 -1 
246 5 2 1.00000000 128.19999695 -366.34204102 -187.62800980 -272.98542786 -2 -1 -1 
247 5 1 -1.00000000 129.10000610 -363.78770447 -187.56002235 -270.03717422 -2 -1 -1 
248 5 2 1.00000000 128.19999695 -361.25829697 -184.79466248 -269.19795990 -2 -1 -1 
249 5 1 -1.00000000 129.10000610 -358.40621567 -186.55639839 -266.96218491 -2 -1 -1 
250 5 2 1.00000000 128.19999695 -358.79498291 -188.58244514 -263.88858032 -2 -1 -1 
251 6 2 1.00000000 128.19999695 420.33012486 -427.29965878 -0.86903453 2 -2 0 
252 6 1 -1.00000000 129.10000610 423.63803959 -429.18812656 -1.00166702 2 -2 0 
253 6 2 1.00000000 128.19999695 426.40287209 -427.02445602 -2.21337938 2 -2 0 
254 6 2 1.00000000 128.19999695 430.11570358 -426.98508930 -1.71504509 2 -2 0 
255 6 2 1.00000000 128.19999695 431.29346466 -427.55671692 1.95178211 2 -2 0 
256 6 1 -1.00000000 129.10000610 430.89488792 -426.42760181 5.50999737 2 -2 0 
257 6 2 1.00000000 128.19999695 431.20974541 -428.27422333 8.79171181 2 -2 0 
258 6 1 -1.00000000 129.10000610 432.81023788 -429.22001934 12.29844666 2 -2 0 
259 6 1 -1.00000000 129.10000610 433.45871544 -426.59220219 15.47197819 2 -2 0 
260 6 1 -1.00000000 129.10000610 435.37994957 -424.04417038 13.41901588 2 -2 0 
261 6 2 1.00000000 128.19999695 433.70282555 -422.49240589 10.91963959 2 -2 0 
262 6 1 -1.00000000 129.10000610 431.54940987 -419.67242861 10.84751225 2 -2 0 
263 6 1 -1.00000000 129.10000610 429.56641293 -417.22149873 12.59584236 2 -2 0 
264 6 1 -1.00000000 129.10000610 428.02247524 -417.68061662 15.98961830 2 -2 0 
265 6 2 1.00000000 128.19999695 425.02689266 -415.52586037 15.83943462 2 -2 0 
266 6 2 1.00000000 128.19999695 422.63852739 -415.71641076 12.88573360 2 -2 0 
267 6 1 -1.00000000 129.10000610 421.06860447 -412.19464874 12.07520390 2 -2 0 
268 6 1 -1.00000000 129.10000610 422.64174318 -409.02214956 11.07033443 2 -2 0 
269 6 2 1.00000000 128.19999695 425.74442101 -407.61333752 9.84184551 2 -2 0 
270 6 1 -1.00000000 129.10000610 427.80641365 -406.18646908 12.72940063 2 -2 0 
271 6 1 -1.00000000 129.10000610 427.31305981 -402.07889080 13.30830669 2 -2 0 
272 6 1 -1.00000000 129.10000610 429.24200726 -400.09820747 15.90244389 2 -2 0 
273 6 2 1.00000000 128.19999695 431.83507538 -397.45413780 15.78528023 2 -2 0 
274 6 1 -1.00000000 129.10000610 429.59312248 -394.60899544 14.38284874 2 -2 0 
275 6 1 -1.00000000 129.10000610 428.28955650 -393.43551826 11.30863190 2 -2 0 
276 6 2 1.00000000 128.19999695 431.06918335 -391.23439217 9.39571953 2 -2 0 
277 6 2 1.00000000 128.19999695 434.96361923 -391.42490959 10.51288128 2 -2 0 
278 6 2 1.00000000 128.19999695 438.34945107 -389.97791100 11.81261063 2 -2 0 
279 6 2 1.00000000 128.19999695 440.97352791 -387.50595474 10.66448021 2 -2 0 
280 6 2 1.00000000 128.19999695 441.46270180 -387.50648880 6.95295715 2 -2 0 
281 6 1 -1.00000000 129.10000610 440.75450134 -390.66994095 4.91383600 2 -2 0 
282 6 1 -1.00000000 129.10000610 437.68028450 -391.82805824 3.70820403 2 -2 0 
283 6 1 -1.00000000 129.10000610 434.41735268 -392.78500366 2.13108373 2 -2 0 
284 6 2 1.00000000 128.19999695 432.29628944 -395.21589279 -0.23471667 2 -2 0 
285 6 2 1.00000000 128.19999695 432.71946716 -398.28847504 -3.05961633 2 -2 0 
286 6 2 1.00000000 128.19999695 434.71129227 -396.90504646 -6.07554483 2 -2 0 
287 6 1 -1.00000000 129.10000610 436.13063431 -396.74795151 -9.89169788 2 -2 0 
288 6 2 1.00000000 128.19999695 438.51095963 -399.29094887 -11.49513435 2 -2 0 
289 6 1 -1.00000000 129.10000610 439.88961983 -398.35494423 -15.11820126 2 -2 0 
290 6 1 -1.00000000 129.10000610 442.79341507 -396.32538605 -16.77573204 2 -2 0 
291 6 1 -1.00000000 129.10000610 445.97231483 -396.49837875 -18.18961143 2 -2 0 
292 6 2 1.00000000 128.19999695 446.06592751 -396.03942490 -21.77655983 2 -2 0 
293 6 1 -1.00000000 129.10000610 448.15899658 -399.00062752 -23.55166817 2 -2 0 
294 6 2 1.00000000 128.19999695 451.54913330 -398.88443470 -24.95495987 2 -2 0 
295 6 2 1.00000000 128.19999695 454.30783081 -395.96397781 -24.68763351 2 -2 0 
296 6 2 1.00000000 128.19999695 455.93626404 -392.83364487 -25.56167412 2 -2 0 
297 6 1 -1.00000000 129.10000610 454.08832169 -390.01994324 -27.44830132 2 -2 0 
298 6 2 1.00000000 128.19999695 453.87729263 -385.98350716 -26.46997833 2 -2 0 
299 6 1 -1.00000000 129.10000610 454.96639252 -385.48882294 -22.74714851 2 -2 0 
300 6 2 1.00000000 128.19999695 457.17380905 -387.97342300 -20.50393105 2 -2 0 
301 7 2 1.00000000 128.19999695 -130.90000153 -20.31926918 -945.94943237 -1 0 -5 
302 7 1 -1.00000000 129.10000610 -129.73841095 -16.85747910 -946.67884064 -1 0 -5 
303 7 2 1.00000000 128.19999695 -130.76366425 -13.55815411 -948.55223083 -1 0 -5 
304 7 2 1.00000000 128.19999695 -129.17115784 -10.29808521 -948.73147583 -1 0 -5 
305 7 2 1.00000000 128.19999695 -127.94076538 -7.16187382 -950.50351715 -1 0 -5 
306 7 1 -1.00000000 129.10000610 -128.55992126 -4.03137350 -948.01425934 -1 0 -5 
307 7 2 1.00000000 128.19999695 -129.00010681 -1.09869182 -945.47041321 -1 0 -5 
308 7 1 -1.00000000 129.10000610 -131.71384430 0.58490676 -943.12998962 -1 0 -5 
309 7 1 -1.00000000 129.10000610 -134.02448273 2.50827241 -944.87248230 -1 0 -5 
310 7 1 -1.00000000 129.10000610 -135.02878571 1.93592048 -948.43406677 -1 0 -5 
311 7 2 1.00000000 128.19999695 -135.08930206 -0.68805242 -951.30195618 -1 0 -5 
312 7 1 -1.00000000 129.10000610 -133.34515381 -0.21331914 -954.81882477 -1 0 -5 
313 7 1 -1.00000000 129.10000610 -132.79570007 -0.15687114 -958.40864563 -1 0 -5 
314 7 1 -1.00000000 129.10000610 -130.08948517 -0.87971467 -960.59664154 -1 0 -5 
315 7 2 1.00000000 128.19999695 -129.18775177 -4.82899523 -961.08499146 -1 0 -5 
316 7 2 1.00000000 128.19999695 -127.47404480 -7.54478264 -962.94976044 -1 0 -5 
317 7 1 -1.00000000 129.10000610 -125.50276947 -10.30271244 -964.49216461 -1 0 -5 
318 7 1 -1.00000000 129.10000610 -122.40097046 -11.27894878 -962.28041077 -1 0 -5 
319 7 2 1.00000000 128.19999695 -119.33868408 -13.03139973 -963.97140503 -1 0 -5 
320 7 1 -1.00000000 129.10000610 -116.57182312 -13.96418953 -961.47863770 -1 0 -5 
321 7 1 -1.00000000 129.10000610 -116.16369629 -17.29239082 -959.62749481 -1 0 -5 
322 7 1 -1.00000000 129.10000610 -116.24166870 -17.32278442 -955.96674347 -1 0 -5 
323 7 2 1.00000000 128.19999695 -112.85894012 -18.22218895 -954.14305115 -1 0 -5 
324 7 1 -1.00000000 129.10000610 -111.95399475 -21.18978310 -951.95864868 -1 0 -5 
325 7 1 -1.00000000 129.10000610 -112.96148682 -24.26930809 -949.93294525 -1 0 -5 
326 7 2 1.00000000 128.19999695 -113.23725128 -26.19154358 -946.68412781 -1 0 -5 
327 7 2 1.00000000 128.19999695 -113.89837646 -29.34602356 -944.48909760 -1 0 -5 
328 7 2 1.00000000 128.19999695 -115.89173889 -32.59939194 -944.80528259 -1 0 -5 
329 7 2 1.00000000 128.19999695 -119.52301025 -32.72313309 -943.37435913 -1 0 -5 
330 7 2 1.00000000 128.19999695 -119.59376526 -33.05563354 -939.64454651 -1 0 -5 
331 7 1 -1.00000000 129.10000610 -115.89749908 -33.55007935 -937.98479462 -1 0 -5 
332 7 1 -1.00000000 129.10000610 -112.47164154 -31.81610107 -937.25525665 -1 0 -5 
333 7 1 -1.00000000 129.10000610 -112.17089081 -29.19303322 -934.48441315 -1 0 -5 
334 7 2 1.00000000 128.19999695 -111.48994446 -26.32971001 -932.28221893 -1 0 -4 
335 7 2 1.00000000 128.19999695 -107.93885040 -24.80163193 -931.06971741 -1 0 -4 
336 7 2 1.00000000 128.19999695 -108.76396942 -23.47702026 -927.71950531 -1 0 -4 
337 7 1 -1.00000000 129.10000610 -109.25825500 -24.30462646 -924.20702362 -1 0 -4 
338 7 2 1.00000000 128.19999695 -111.22313690 -24.18806839 -921.17559052 -1 0 -4 
339 7 1 -1.00000000 129.10000610 -113.03971100 -22.52134323 -918.36676025 -1 0 -4 
340 7 1 -1.00000000 129.10000610 -112.09134674 -19.53220177 -916.17848206 -1 0 -4 
341 7 1 -1.00000000 129.10000610 -114.58534241 -16.56687927 -917.02091980 -1 0 -4 
342 7 2 1.00000000 128.19999695 -117.29311371 -16.49244690 -914.43544006 -1 0 -4 
343 7 1 -1.00000000 129.10000610 -119.92137909 -13.37490940 -915.21337128 -1 0 -4 
344 7 2 1.00000000 128.19999695 -120.15643311 -11.10471821 -918.52206421 -1 0 -4 
345 7 2 1.00000000 128.19999695 -120.91261292 -11.30837345 -922.31956482 -1 0 -4 
346 7 2 1.00000000 128.19999695 -119.53912354 -14.44303417 -924.22899628 -1 0 -4 
347 7 1 -1.00000000 129.10000610 -118.00984955 -14.23494530 -927.89060974 -1 0 -4 
348 7 2 1.00000000 128.19999695 -115.27553558 -17.10561562 -927.54552460 -1 0 -4 
349 7 1 -1.00000000 129.10000610 -113.17104340 -17.62280273 -924.13900757 -1 0 -4 
350 7 2 1.00000000 128.19999695 -109.82646179 -17.44878197 -923.34976196 -1 0 -4 
351 8 2 1.00000000 128.19999695 86.87993622 -135.02592468 586.76168060 0 -1 3 
352 8 1 -1.00000000 129.10000610 86.66704559 -130.98177338 587.87531281 0 -1 3 
353 8 2 1.00000000 128.19999695 87.97868347 -129.31644440 591.33401108 0 -1 3 
354 8 2 1.00000000 128.19999695 85.46914673 -130.08882904 593.74325943 0 -1 3 
355 8 2 1.00000000 128.19999695 82.73744965 -130.54064178 596.40964699 0 -1 3 
356 8 1 -1.00000000 129.10000610 81.34293365 -126.89887238 596.33813477 0 -1 3 
357 8 2 1.00000000 128.19999695 81.19561005 -125.00395966 592.90885544 0 -1 3 
358 8 1 -1.00000000 129.10000610 79.94619751 -122.13960266 591.34751892 0 -1 3 
359 8 1 -1.00000000 129.10000610 80.12248993 -119.51145935 594.18477440 0 -1 3 
360 8 1 -1.00000000 129.10000610 83.11696625 -117.51848602 594.93805885 0 -1 3 
361 8 2 1.00000000 128.19999695 86.77896881 -116.29877472 594.87599564 0 -1 3 
362 8 1 -1.00000000 129.10000610 88.16093445 -116.15107727 591.46966171 0 -1 3 
363 8 1 -1.00000000 129.10000610 89.36376190 -118.92340088 589.09111023 0 -1 3 
364 8 1 -1.00000000 129.10000610 87.92088318 -122.27044678 590.08730888 0 -1 3 
365 8 2 1.00000000 128.19999695 89.27119446 -122.15675354 593.57146454 0 -1 3 
366 8 2 1.00000000 128.19999695 92.34575653 -121.46302032 595.78791428 0 -1 3 
367 8 1 -1.00000000 129.10000610 93.77429199 -117.79508972 596.97537994 0 -1 3 
368 8 1 -1.00000000 129.10000610 96.44131470 -116.37718201 599.08486557 0 -1 3 
369 8 2 1.00000000 128.19999695 99.26327515 -113.84198761 597.85733986 0 -1 3 
370 8 1 -1.00000000 129.10000610 97.81784058 -113.34754944 594.25779343 0 -1 3 
371 8 1 -1.00000000 129.10000610 97.80329895 -110.81038666 591.17580986 0 -1 3 