ITEM: TIMESTEP
42350000 
ITEM: NUMBER OF ATOMS 
25000 
ITEM: BOX BOUNDS pp pp pp 
-103.678017 103.678017 
-103.678017 103.678017 
-103.678017 103.678017 
ITEM: ATOMS id mol type q mass xu yu zu ix iy iz 
1 1 2 1.00000000 128.19999695 422.49410725 -132.91828918 -246.54289246 2 -1 -1 
2 1 1 -1.00000000 129.10000610 425.49430656 -132.69420624 -245.27520752 2 -1 -1 
3 1 2 1.00000000 128.19999695 428.16842461 -130.37386322 -247.12785339 2 -1 -1 
4 1 2 1.00000000 128.19999695 431.11543083 -128.77545166 -248.69590759 2 -1 -1 
5 1 2 1.00000000 128.19999695 434.64709854 -128.81307220 -250.00460815 2 -1 -1 
6 1 1 -1.00000000 129.10000610 437.14222527 -129.02354431 -253.35824585 2 -1 -1 
7 1 2 1.00000000 128.19999695 437.05519485 -130.90429688 -256.83170700 2 -1 -1 
8 1 1 -1.00000000 129.10000610 435.65722466 -133.97384644 -257.69503021 2 -1 -1 
9 1 1 -1.00000000 129.10000610 437.90869713 -137.03614044 -258.00182724 2 -1 -1 
10 1 1 -1.00000000 129.10000610 437.95256996 -141.04975128 -258.35363770 2 -1 -1 
11 1 2 1.00000000 128.19999695 440.01531410 -144.24128723 -258.45947647 2 -1 -1 
12 1 1 -1.00000000 129.10000610 443.04797745 -143.42168808 -256.47072601 2 -1 -1 
13 1 1 -1.00000000 129.10000610 444.90995979 -143.51492310 -252.98836136 2 -1 -1 
14 1 1 -1.00000000 129.10000610 448.03007889 -141.58230591 -253.94590759 2 -1 -1 
15 1 2 1.00000000 128.19999695 449.14720535 -140.29684448 -257.18114853 2 -1 -1 
16 1 2 1.00000000 128.19999695 449.71957779 -143.06654358 -260.13294983 2 -1 -1 
17 1 1 -1.00000000 129.10000610 451.64108276 -146.43959808 -260.58419418 2 -1 -1 
18 1 1 -1.00000000 129.10000610 455.13624573 -147.68031311 -261.63753510 2 -1 -1 
19 1 2 1.00000000 128.19999695 457.30439377 -144.62443161 -262.58182144 2 -1 -1 
20 1 1 -1.00000000 129.10000610 458.21069336 -142.10070801 -259.96991348 2 -1 -1 
21 1 1 -1.00000000 129.10000610 456.98254013 -138.85701752 -261.33513641 2 -1 -1 
22 1 1 -1.00000000 129.10000610 455.98546219 -135.31906128 -259.72581482 2 -1 -1 
23 1 2 1.00000000 128.19999695 457.55332947 -132.72004700 -262.11311722 2 -1 -1 
24 1 1 -1.00000000 129.10000610 456.93007660 -129.92293549 -264.80844879 2 -1 -1 
25 1 1 -1.00000000 129.10000610 457.58043671 -126.71250916 -265.96392822 2 -1 -1 
26 1 2 1.00000000 128.19999695 459.44611359 -126.57943726 -269.04854584 2 -1 -1 
27 1 2 1.00000000 128.19999695 462.85272598 -128.05068970 -270.65702438 2 -1 -1 
28 1 2 1.00000000 128.19999695 466.38890076 -129.64799500 -270.70980835 2 -1 -1 
29 1 2 1.00000000 128.19999695 467.88553619 -130.80470276 -267.54371262 2 -1 -1 
30 1 2 1.00000000 128.19999695 470.47810745 -132.89436340 -265.55516052 2 -1 -1 
31 1 1 -1.00000000 129.10000610 470.98283768 -134.98661804 -262.30744171 2 -1 -1 
32 1 1 -1.00000000 129.10000610 474.73732758 -135.00662231 -261.45339966 2 -1 -1 
33 1 1 -1.00000000 129.10000610 475.00114441 -134.29563141 -257.83412933 2 -1 -1 
34 1 2 1.00000000 128.19999695 471.92087936 -135.25720978 -255.66902542 2 -1 -1 
35 1 2 1.00000000 128.19999695 473.17302322 -134.30277252 -251.88237000 2 -1 -1 
36 1 2 1.00000000 128.19999695 470.05049896 -133.24258423 -249.27914810 2 -1 -1 
37 1 1 -1.00000000 129.10000610 467.66875458 -130.13285828 -249.39325714 2 -1 -1 
38 1 2 1.00000000 128.19999695 465.33387756 -127.26384735 -249.07826614 2 -1 -1 
39 1 1 -1.00000000 129.10000610 464.88536835 -124.86686707 -252.11993027 2 -1 -1 
40 1 1 -1.00000000 129.10000610 466.68016815 -121.53076935 -252.78657150 2 -1 -1 
41 1 1 -1.00000000 129.10000610 466.42150116 -118.84175873 -255.56006622 2 -1 -1 
42 1 2 1.00000000 128.19999695 469.81007767 -117.06432343 -255.09312439 2 -1 -1 
43 1 1 -1.00000000 129.10000610 469.78923035 -115.81517792 -251.51514435 2 -1 -1 
44 1 2 1.00000000 128.19999695 467.27585983 -114.80651855 -248.76187897 2 -1 -1 
45 1 2 1.00000000 128.19999695 467.18647385 -117.43223572 -245.53046799 2 -1 -1 
46 1 2 1.00000000 128.19999695 464.33153915 -119.95358276 -244.84084702 2 -1 -1 
47 1 1 -1.00000000 129.10000610 461.12259293 -118.23097992 -245.28390121 2 -1 -1 
48 1 2 1.00000000 128.19999695 458.58987045 -117.73611450 -242.38453674 2 -1 -1 
49 1 1 -1.00000000 129.10000610 455.18739319 -119.48789215 -241.34135056 2 -1 -1 
50 1 2 1.00000000 128.19999695 451.60156631 -119.47797394 -241.71369171 2 -1 -1 
51 2 2 1.00000000 128.19999695 446.66079330 390.62089539 -322.94941711 2 2 -2 
52 2 1 -1.00000000 129.10000610 444.29092789 393.51877785 -323.08664703 2 2 -2 
53 2 2 1.00000000 128.19999695 441.97378540 396.43753052 -322.66262054 2 2 -2 
54 2 2 1.00000000 128.19999695 438.90284157 396.58166885 -325.42352295 2 2 -2 
55 2 2 1.00000000 128.19999695 435.77143478 395.49752617 -327.20217133 2 2 -2 
56 2 1 -1.00000000 129.10000610 434.32389450 396.95424461 -330.32330322 2 2 -2 
57 2 2 1.00000000 128.19999695 433.88326073 399.94932938 -332.53547668 2 2 -2 
58 2 1 -1.00000000 129.10000610 434.78440094 402.26157570 -335.28371429 2 2 -2 
59 2 1 -1.00000000 129.10000610 433.52921867 404.68331146 -337.91479492 2 2 -2 
60 2 1 -1.00000000 129.10000610 430.09686375 403.03933048 -339.35016632 2 2 -2 
61 2 2 1.00000000 128.19999695 428.74065018 400.89428616 -342.09077454 2 2 -2 
62 2 1 -1.00000000 129.10000610 427.39374065 397.58494568 -343.64825439 2 2 -2 
63 2 1 -1.00000000 129.10000610 429.14964676 396.85543633 -347.12341309 2 2 -2 
64 2 1 -1.00000000 129.10000610 428.76528549 399.51727390 -349.90138245 2 2 -2 
65 2 2 1.00000000 128.19999695 427.53579426 398.18823433 -353.26963043 2 2 -2 
66 2 2 1.00000000 128.19999695 425.66757584 395.10825539 -355.49322891 2 2 -2 
67 2 1 -1.00000000 129.10000610 423.29636478 393.56622505 -358.35533524 2 2 -2 
68 2 1 -1.00000000 129.10000610 425.46618938 394.25428963 -361.63254929 2 2 -2 
69 2 2 1.00000000 128.19999695 428.83344364 395.94417953 -361.26757812 2 2 -2 
70 2 1 -1.00000000 129.10000610 432.47544479 395.21193504 -360.08688736 2 2 -2 
71 2 1 -1.00000000 129.10000610 435.46488762 392.93674469 -358.90373611 2 2 -2 
72 2 1 -1.00000000 129.10000610 438.48590660 391.91204834 -357.50466537 2 2 -2 
73 2 2 1.00000000 128.19999695 440.91965485 389.47393990 -356.52416611 2 2 -2 
74 2 1 -1.00000000 129.10000610 440.81883812 390.19696617 -352.84265900 2 2 -2 
75 2 1 -1.00000000 129.10000610 438.97301102 388.72462463 -349.92391968 2 2 -2 
76 2 2 1.00000000 128.19999695 436.57281685 391.39532661 -348.88220215 2 2 -2 
77 2 2 1.00000000 128.19999695 436.24892235 393.41704750 -345.61000824 2 2 -2 
78 2 2 1.00000000 128.19999695 434.39482498 394.18207169 -342.06627655 2 2 -2 
79 2 2 1.00000000 128.19999695 434.88283348 397.97836113 -341.35430908 2 2 -2 
80 2 2 1.00000000 128.19999695 437.86592865 399.90304279 -340.40370178 2 2 -2 
81 2 1 -1.00000000 129.10000610 440.55430603 397.30707741 -339.63004303 2 2 -2 
82 2 1 -1.00000000 129.10000610 443.34431267 394.68246460 -341.25559998 2 2 -2 
83 2 1 -1.00000000 129.10000610 443.77670097 392.47724342 -344.34029388 2 2 -2 
84 2 2 1.00000000 128.19999695 446.59329796 393.63345146 -347.02006531 2 2 -2 
85 2 2 1.00000000 128.19999695 449.30492020 392.96049118 -344.16903687 2 2 -2 
86 2 2 1.00000000 128.19999695 451.91353607 392.45188141 -341.59530640 2 2 -2 
87 2 1 -1.00000000 129.10000610 454.46001816 389.77280617 -341.43749237 2 2 -2 
88 2 2 1.00000000 128.19999695 453.76501465 387.92594337 -337.90562439 2 2 -2 
89 2 1 -1.00000000 129.10000610 453.19271088 388.47086334 -334.04053497 2 2 -2 
90 2 1 -1.00000000 129.10000610 449.76707840 388.96373177 -332.46024323 2 2 -2 
91 2 1 -1.00000000 129.10000610 447.59304047 388.17809486 -329.39797974 2 2 -2 
92 2 2 1.00000000 128.19999695 447.42882919 384.71032524 -327.98023224 2 2 -2 
93 2 1 -1.00000000 129.10000610 447.99201202 381.70458984 -330.49745178 2 2 -2 
94 2 2 1.00000000 128.19999695 450.68620682 379.04273987 -329.96308136 2 2 -2 
95 2 2 1.00000000 128.19999695 454.25805664 377.67875671 -329.41426849 2 2 -2 
96 2 2 1.00000000 128.19999695 457.77981186 376.49895859 -331.46770477 2 2 -2 
97 2 1 -1.00000000 129.10000610 461.61176300 376.63528442 -330.59683990 2 2 -2 
98 2 2 1.00000000 128.19999695 464.88615417 376.55117416 -332.31889343 2 2 -2 
99 2 1 -1.00000000 129.10000610 467.12364960 376.99342728 -335.33255768 2 2 -2 
100 2 2 1.00000000 128.19999695 469.38748169 376.73057938 -338.24018097 2 2 -2 
101 3 2 1.00000000 128.19999695 306.01691437 -76.70146179 67.34761047 1 0 0 
102 3 1 -1.00000000 129.10000610 309.23580170 -78.17582703 69.01316833 1 0 0 
103 3 2 1.00000000 128.19999695 311.32170868 -79.27478027 71.90866089 2 0 0 
104 3 2 1.00000000 128.19999695 313.40378571 -82.35821533 71.64837646 2 0 0 
105 3 2 1.00000000 128.19999695 316.91241455 -81.61085510 72.73706055 2 0 0 
106 3 1 -1.00000000 129.10000610 319.10276031 -84.36679077 74.51784515 2 0 0 
107 3 2 1.00000000 128.19999695 317.77146149 -87.02497101 76.37391663 2 0 0 
108 3 1 -1.00000000 129.10000610 315.96737671 -87.22673035 79.97590637 2 0 0 
109 3 1 -1.00000000 129.10000610 317.66798401 -86.92531586 83.50734711 2 0 0 
110 3 1 -1.00000000 129.10000610 317.82508850 -83.52465820 85.10525513 2 0 0 
111 3 2 1.00000000 128.19999695 320.06072998 -83.60320282 88.28000641 2 0 0 
112 3 1 -1.00000000 129.10000610 322.94779205 -86.01412201 89.42783356 2 0 0 
113 3 1 -1.00000000 129.10000610 324.80448151 -83.95111847 91.90121460 2 0 0 
114 3 1 -1.00000000 129.10000610 326.03312683 -82.79683685 95.12120819 2 0 0 
115 3 2 1.00000000 128.19999695 325.28565216 -84.12788391 98.75942230 2 0 0 
116 3 2 1.00000000 128.19999695 323.60840607 -87.74200439 98.49008942 2 0 0 
117 3 1 -1.00000000 129.10000610 325.25401306 -90.87117767 99.93722534 2 0 0 
118 3 1 -1.00000000 129.10000610 327.02658844 -90.21678925 103.15960693 2 0 0 
119 3 2 1.00000000 128.19999695 329.50013733 -88.27172852 105.25052643 2 0 1 
120 3 1 -1.00000000 129.10000610 332.11061859 -85.83148956 104.65123749 2 0 1 
121 3 1 -1.00000000 129.10000610 335.62991333 -87.16446686 103.18299103 2 0 0 
122 3 1 -1.00000000 129.10000610 336.69302368 -86.85616302 99.37427521 2 0 0 
123 3 2 1.00000000 128.19999695 334.20841980 -85.47037506 96.56288147 2 0 0 
124 3 1 -1.00000000 129.10000610 336.11811829 -83.19782257 93.77333069 2 0 0 
125 3 1 -1.00000000 129.10000610 333.87405396 -82.80952454 91.03024292 2 0 0 
126 3 2 1.00000000 128.19999695 330.28070831 -81.82742310 89.99940491 2 0 0 
127 3 2 1.00000000 128.19999695 328.30384827 -78.99685669 88.65437317 2 0 0 
128 3 2 1.00000000 128.19999695 329.75769043 -75.19517517 88.53220367 2 0 0 
129 3 2 1.00000000 128.19999695 331.24670410 -71.50900269 88.91007233 2 0 0 
130 3 2 1.00000000 128.19999695 331.41152191 -70.28875732 92.31099701 2 0 0 
131 3 1 -1.00000000 129.10000610 333.72837830 -67.64243317 93.41639709 2 0 0 
132 3 1 -1.00000000 129.10000610 337.10855865 -68.69593048 94.55133057 2 0 0 
133 3 1 -1.00000000 129.10000610 338.38615417 -72.15057373 95.68241119 2 0 0 
134 3 2 1.00000000 128.19999695 341.72380066 -73.56593323 95.10481262 2 0 0 
135 3 2 1.00000000 128.19999695 344.06915283 -76.67616272 94.49310303 2 0 0 
136 3 2 1.00000000 128.19999695 342.78764343 -79.61207581 92.39186096 2 0 0 
137 3 1 -1.00000000 129.10000610 339.55496979 -79.80119324 89.51729584 2 0 0 
138 3 2 1.00000000 128.19999695 341.36351013 -78.17527008 86.59270477 2 0 0 
139 3 1 -1.00000000 129.10000610 338.37869263 -78.39349365 84.01918030 2 0 0 
140 3 1 -1.00000000 129.10000610 337.73551941 -75.21544647 82.52021790 2 0 0 
141 3 1 -1.00000000 129.10000610 339.13894653 -71.69725800 81.56690979 2 0 0 
142 3 2 1.00000000 128.19999695 339.08616638 -70.47022247 78.10558319 2 0 0 
143 3 1 -1.00000000 129.10000610 342.31842041 -68.86042786 77.44792938 2 0 0 
144 3 2 1.00000000 128.19999695 346.35656738 -68.58448029 76.98704529 2 0 0 
145 3 2 1.00000000 128.19999695 349.27986908 -66.59603119 78.49611664 2 0 0 
146 3 2 1.00000000 128.19999695 349.50726318 -62.98015594 78.33015442 2 0 0 
147 3 1 -1.00000000 129.10000610 347.97082520 -59.64595032 77.58174133 2 0 0 
148 3 2 1.00000000 128.19999695 344.45482635 -58.58909225 78.57458496 2 0 0 
149 3 1 -1.00000000 129.10000610 342.77599335 -59.09669495 82.14979553 2 0 0 
150 3 2 1.00000000 128.19999695 341.76731873 -62.81465530 82.16963196 2 0 0 
151 4 2 1.00000000 128.19999695 -320.35111237 437.27767944 89.67972565 -2 2 0 
152 4 1 -1.00000000 129.10000610 -322.52187347 437.37176704 86.49528503 -2 2 0 
153 4 2 1.00000000 128.19999695 -322.40928650 439.08426285 83.13695526 -2 2 0 
154 4 2 1.00000000 128.19999695 -319.06258392 438.12356567 81.09832764 -2 2 0 
155 4 2 1.00000000 128.19999695 -319.74217987 435.89737129 78.05023193 -2 2 0 
156 4 1 -1.00000000 129.10000610 -319.57185364 434.88116646 74.15616608 -2 2 0 
157 4 2 1.00000000 128.19999695 -317.56953430 435.90891838 71.10814667 -2 2 0 
158 4 1 -1.00000000 129.10000610 -315.81418610 434.35751343 68.17409515 -2 2 0 
159 4 1 -1.00000000 129.10000610 -314.52609253 431.00202370 67.86193085 -2 2 0 
160 4 1 -1.00000000 129.10000610 -315.60817719 427.46811485 67.66309357 -2 2 0 
161 4 2 1.00000000 128.19999695 -316.93136597 424.57603645 69.51109314 -2 2 0 
162 4 1 -1.00000000 129.10000610 -320.19767761 425.17339993 71.24571991 -2 2 0 
163 4 1 -1.00000000 129.10000610 -322.93089294 427.68802738 70.40933228 -2 2 0 
164 4 1 -1.00000000 129.10000610 -324.32785034 431.13005066 69.54904938 -2 2 0 
165 4 2 1.00000000 128.19999695 -327.81479645 432.27674103 67.81558990 -2 2 0 
166 4 2 1.00000000 128.19999695 -328.94393158 429.21636772 65.62763977 -2 2 0 
167 4 1 -1.00000000 129.10000610 -332.65272522 428.60496998 64.49131012 -2 2 0 
168 4 1 -1.00000000 129.10000610 -336.26928711 428.68857479 63.28392410 -2 2 0 
169 4 2 1.00000000 128.19999695 -338.76581573 426.47523594 64.99288177 -2 2 0 
170 4 1 -1.00000000 129.10000610 -338.83537292 422.41693115 65.14260101 -2 2 0 
171 4 1 -1.00000000 129.10000610 -338.24414825 418.66221118 64.49476624 -2 2 0 
172 4 1 -1.00000000 129.10000610 -337.64227295 415.62135237 61.87636566 -2 2 0 
173 4 2 1.00000000 128.19999695 -338.58937836 415.55886042 58.17877197 -2 2 0 
174 4 1 -1.00000000 129.10000610 -336.40377045 412.38764763 57.36365891 -2 2 0 
175 4 1 -1.00000000 129.10000610 -332.78929901 413.18137050 55.71173859 -2 2 0 
176 4 2 1.00000000 128.19999695 -330.35524750 410.90395498 57.13185883 -2 2 0 
177 4 2 1.00000000 128.19999695 -327.04550171 409.69477320 58.29907608 -2 2 0 
178 4 2 1.00000000 128.19999695 -323.91506958 411.72902274 59.22236252 -2 2 0 
179 4 2 1.00000000 128.19999695 -321.57437134 412.91666400 62.35671234 -2 2 0 
180 4 2 1.00000000 128.19999695 -323.84549713 412.85799301 65.54031372 -2 2 0 
181 4 1 -1.00000000 129.10000610 -326.70525360 411.10739946 66.85915375 -2 2 0 
182 4 1 -1.00000000 129.10000610 -329.24797058 414.25650647 66.97937775 -2 2 0 
183 4 1 -1.00000000 129.10000610 -329.74523926 417.67981839 65.13420868 -2 2 0 
184 4 2 1.00000000 128.19999695 -330.09067535 419.49517155 61.45777130 -2 2 0 
185 4 2 1.00000000 128.19999695 -331.85319519 420.95204878 58.20935059 -2 2 0 
186 4 2 1.00000000 128.19999695 -330.98938751 422.96977711 54.59062195 -2 2 0 
187 4 1 -1.00000000 129.10000610 -328.04496002 420.84412479 52.93186951 -2 2 0 
188 4 2 1.00000000 128.19999695 -324.90636444 420.27766514 50.98677826 -2 2 0 
189 4 1 -1.00000000 129.10000610 -322.68874359 417.28006387 50.50365448 -2 2 0 
190 4 1 -1.00000000 129.10000610 -322.70738983 414.62598652 52.78807831 -2 2 0 
191 4 1 -1.00000000 129.10000610 -326.01618195 413.08800733 53.23460007 -2 2 0 
192 4 2 1.00000000 128.19999695 -329.08753967 414.12671018 50.97947311 -2 2 0 
193 4 1 -1.00000000 129.10000610 -330.94510651 416.75579000 48.76663208 -2 2 0 
194 4 2 1.00000000 128.19999695 -328.55023956 417.26588440 45.41781616 -2 2 0 
195 4 2 1.00000000 128.19999695 -328.00483704 421.43369246 45.82238388 -2 2 0 
196 4 2 1.00000000 128.19999695 -331.08858490 422.95795441 47.47915268 -2 2 0 
197 4 1 -1.00000000 129.10000610 -332.80343628 425.77632236 46.14718246 -2 2 0 
198 4 2 1.00000000 128.19999695 -334.14009094 426.12496090 42.90219498 -2 2 0 
199 4 1 -1.00000000 129.10000610 -333.60793304 426.27127838 39.34992218 -2 2 0 
200 4 2 1.00000000 128.19999695 -332.55933380 429.33273983 37.48061371 -2 2 0 
201 5 2 1.00000000 128.19999695 -339.97797394 -302.19048309 -297.85574341 -2 -1 -1 
202 5 1 -1.00000000 129.10000610 -340.85520935 -298.82137299 -297.67510223 -2 -1 -1 
203 5 2 1.00000000 128.19999695 -339.70886230 -295.24333954 -299.04036713 -2 -1 -1 
204 5 2 1.00000000 128.19999695 -339.80315399 -291.70581055 -296.66405487 -2 -1 -1 
205 5 2 1.00000000 128.19999695 -343.32691193 -289.95748901 -296.95133972 -2 -1 -1 
206 5 1 -1.00000000 129.10000610 -343.28009033 -289.29181671 -300.72949982 -2 -1 -1 
207 5 2 1.00000000 128.19999695 -342.80617523 -285.52384186 -301.64060974 -2 -1 -1 
208 5 1 -1.00000000 129.10000610 -339.65266418 -283.80312347 -303.06776428 -2 -1 -1 
209 5 1 -1.00000000 129.10000610 -336.26481628 -283.84298706 -301.85578156 -2 -1 -1 
210 5 1 -1.00000000 129.10000610 -335.73091888 -287.18525696 -300.26223755 -2 -1 -1 
211 5 2 1.00000000 128.19999695 -333.01534271 -289.69722748 -300.83965302 -2 -1 -1 
212 5 1 -1.00000000 129.10000610 -333.64982605 -292.62333679 -303.34038544 -2 -1 -1 
213 5 1 -1.00000000 129.10000610 -333.70280457 -296.44396973 -302.70520020 -2 -1 -1 
214 5 1 -1.00000000 129.10000610 -332.69845581 -298.18414307 -299.36002350 -2 -1 -1 
215 5 2 1.00000000 128.19999695 -329.17640686 -299.03942871 -299.59773254 -2 -1 -1 
216 5 2 1.00000000 128.19999695 -327.73346710 -300.90722656 -302.94507599 -2 -1 -1 
217 5 1 -1.00000000 129.10000610 -329.53742218 -303.65612030 -304.84750366 -2 -1 -1 
218 5 1 -1.00000000 129.10000610 -332.16867065 -304.34915161 -302.89136505 -2 -1 -1 
219 5 2 1.00000000 128.19999695 -335.84940338 -305.36042023 -303.51570129 -2 -1 -1 
220 5 1 -1.00000000 129.10000610 -337.76696777 -308.16093445 -304.96644592 -2 -1 -1 
221 5 1 -1.00000000 129.10000610 -341.28302765 -308.89202881 -304.70121765 -2 -1 -1 
222 5 1 -1.00000000 129.10000610 -344.07419586 -306.39588165 -304.47274780 -2 -1 -1 
223 5 2 1.00000000 128.19999695 -346.91690063 -305.51634979 -306.85237122 -2 -1 -1 
224 5 1 -1.00000000 129.10000610 -345.10917664 -303.37075043 -309.47779846 -2 -1 -1 
225 5 1 -1.00000000 129.10000610 -341.74528503 -302.10662079 -311.09582520 -2 -1 -2 
226 5 2 1.00000000 128.19999695 -341.28845978 -299.15141296 -313.40805054 -2 -1 -2 
227 5 2 1.00000000 128.19999695 -343.01759338 -295.70524597 -314.16327667 -2 -1 -2 
228 5 2 1.00000000 128.19999695 -346.07312012 -295.36388397 -311.93377686 -2 -1 -2 
229 5 2 1.00000000 128.19999695 -349.47596741 -294.84137726 -310.12194824 -2 -1 -1 
230 5 2 1.00000000 128.19999695 -352.51088715 -292.88896942 -310.36198425 -2 -1 -1 
231 5 1 -1.00000000 129.10000610 -352.27351761 -289.55303955 -312.33918762 -2 -1 -2 
232 5 1 -1.00000000 129.10000610 -349.26460266 -287.89164734 -313.05339813 -2 -1 -2 
233 5 1 -1.00000000 129.10000610 -345.91808319 -288.51774597 -313.23867798 -2 -1 -2 
234 5 2 1.00000000 128.19999695 -342.33629608 -288.83599854 -313.26044464 -2 -1 -2 
235 5 2 1.00000000 128.19999695 -339.12838745 -287.52891541 -311.73941803 -2 -1 -2 
236 5 2 1.00000000 128.19999695 -337.31845856 -285.96355438 -314.85429382 -2 -1 -2 
237 5 1 -1.00000000 129.10000610 -339.93780518 -285.28601074 -317.97960663 -2 -1 -2 
238 5 2 1.00000000 128.19999695 -341.48549652 -282.23036194 -320.00728607 -2 -1 -2 
239 5 1 -1.00000000 129.10000610 -344.26370239 -280.18981934 -322.19255066 -2 -1 -2 
240 5 1 -1.00000000 129.10000610 -347.79520416 -279.87864685 -322.89228058 -2 -1 -2 
241 5 1 -1.00000000 129.10000610 -349.85482025 -279.98635101 -325.83145905 -2 -1 -2 
242 5 2 1.00000000 128.19999695 -348.59696960 -279.74440002 -329.54574585 -2 -1 -2 
243 5 1 -1.00000000 129.10000610 -346.11136627 -276.73085785 -329.58089447 -2 -1 -2 
244 5 2 1.00000000 128.19999695 -343.10607147 -277.95938873 -327.34901428 -2 -1 -2 
245 5 2 1.00000000 128.19999695 -339.85482025 -279.71360779 -327.18155670 -2 -1 -2 
246 5 2 1.00000000 128.19999695 -337.70857239 -281.81906128 -329.47550201 -2 -1 -2 
247 5 1 -1.00000000 129.10000610 -336.76104736 -280.16121674 -333.00533295 -2 -1 -2 
248 5 2 1.00000000 128.19999695 -337.35257721 -280.22653961 -336.56872559 -2 -1 -2 
249 5 1 -1.00000000 129.10000610 -339.78673553 -279.17917633 -339.26381683 -2 -1 -2 
250 5 2 1.00000000 128.19999695 -339.39360809 -276.42742920 -341.35997772 -2 -1 -2 
251 6 2 1.00000000 128.19999695 431.31124687 -364.99816513 -101.36106110 2 -2 0 
252 6 1 -1.00000000 129.10000610 428.22323513 -366.99166489 -100.56462860 2 -2 0 
253 6 2 1.00000000 128.19999695 426.20450592 -369.26058197 -102.74517059 2 -2 0 
254 6 2 1.00000000 128.19999695 427.25830460 -369.72824097 -106.54917908 2 -2 -1 
255 6 2 1.00000000 128.19999695 430.09244156 -370.44299316 -108.80983734 2 -2 -1 
256 6 1 -1.00000000 129.10000610 430.33522701 -374.28120422 -109.64648438 2 -2 -1 
257 6 2 1.00000000 128.19999695 433.19700241 -375.31855774 -112.18601990 2 -2 -1 
258 6 1 -1.00000000 129.10000610 432.82853127 -378.88069916 -113.81784821 2 -2 -1 
259 6 1 -1.00000000 129.10000610 435.71010590 -380.83608246 -115.78392792 2 -2 -1 
260 6 1 -1.00000000 129.10000610 438.99047089 -379.70566177 -114.26519775 2 -2 -1 
261 6 2 1.00000000 128.19999695 441.86075783 -377.77070999 -116.12459564 2 -2 -1 
262 6 1 -1.00000000 129.10000610 443.97021675 -378.74633789 -118.84074402 2 -2 -1 
263 6 1 -1.00000000 129.10000610 447.47792053 -377.89146042 -118.66961670 2 -2 -1 
264 6 1 -1.00000000 129.10000610 450.62457275 -375.77873993 -118.97271729 2 -2 -1 
265 6 2 1.00000000 128.19999695 452.59994888 -377.18774414 -116.35569000 2 -2 -1 
266 6 2 1.00000000 128.19999695 455.34231949 -379.40436935 -114.60852051 2 -2 -1 
267 6 1 -1.00000000 129.10000610 458.72795105 -380.63356018 -113.68581390 2 -2 -1 
268 6 1 -1.00000000 129.10000610 461.48116302 -382.35324860 -111.86470795 2 -2 -1 
269 6 2 1.00000000 128.19999695 461.14921951 -383.86427689 -108.43112946 2 -2 -1 
270 6 1 -1.00000000 129.10000610 459.72872543 -386.68894005 -106.05493927 2 -2 -1 
271 6 1 -1.00000000 129.10000610 460.80749130 -389.62386894 -103.83902740 2 -2 -1 
272 6 1 -1.00000000 129.10000610 464.16938019 -391.26626396 -103.86180878 2 -2 -1 
273 6 2 1.00000000 128.19999695 466.11584854 -393.90302467 -105.75970459 2 -2 -1 
274 6 1 -1.00000000 129.10000610 467.54289627 -396.69345474 -107.93475342 2 -2 -1 
275 6 1 -1.00000000 129.10000610 470.63724899 -397.23776054 -110.16912079 2 -2 -1 
276 6 2 1.00000000 128.19999695 473.06929398 -396.44006538 -112.75241852 2 -2 -1 
277 6 2 1.00000000 128.19999695 476.46641541 -396.11899567 -110.86814117 2 -2 -1 
278 6 2 1.00000000 128.19999695 476.27425766 -394.33546257 -107.41443634 2 -2 -1 
279 6 2 1.00000000 128.19999695 474.39749527 -395.66173935 -104.60497284 2 -2 -1 
280 6 2 1.00000000 128.19999695 472.29827499 -394.83508873 -101.63833618 2 -2 0 
281 6 1 -1.00000000 129.10000610 471.05059433 -391.25774193 -100.99244690 2 -2 0 
282 6 1 -1.00000000 129.10000610 473.07828903 -388.61165810 -102.83496094 2 -2 0 
283 6 1 -1.00000000 129.10000610 471.12292099 -386.06844711 -104.13345337 2 -2 -1 
284 6 2 1.00000000 128.19999695 471.36682129 -383.13247490 -105.80203247 2 -2 -1 
285 6 2 1.00000000 128.19999695 473.28150558 -380.05234146 -104.60169220 2 -2 -1 
286 6 2 1.00000000 128.19999695 476.87207031 -379.01355743 -103.63613892 2 -2 0 
287 6 1 -1.00000000 129.10000610 480.10218048 -378.11451340 -101.41187286 2 -2 0 
288 6 2 1.00000000 128.19999695 483.48706055 -378.09635162 -99.63793945 2 -2 0 
289 6 1 -1.00000000 129.10000610 483.96088409 -380.73475647 -96.53491974 2 -2 0 
290 6 1 -1.00000000 129.10000610 484.23136902 -384.37635994 -96.90489197 2 -2 0 
291 6 1 -1.00000000 129.10000610 481.73082733 -386.43960571 -94.90189362 2 -2 0 
292 6 2 1.00000000 128.19999695 479.80447388 -385.91957855 -91.34089661 2 -2 0 
293 6 1 -1.00000000 129.10000610 479.79363251 -386.30346870 -87.40406799 2 -2 0 
294 6 2 1.00000000 128.19999695 482.46856689 -384.10550117 -85.22763824 2 -2 0 
295 6 2 1.00000000 128.19999695 486.22714996 -384.55391693 -86.34808350 2 -2 0 
296 6 2 1.00000000 128.19999695 488.35778046 -387.28614426 -87.63053131 2 -2 0 
297 6 1 -1.00000000 129.10000610 490.70077515 -386.24694443 -90.29085541 2 -2 0 
298 6 2 1.00000000 128.19999695 494.17884064 -387.09864426 -91.23108673 2 -2 0 
299 6 1 -1.00000000 129.10000610 495.58320618 -390.61104774 -91.29482269 2 -2 0 
300 6 2 1.00000000 128.19999695 493.57567596 -393.47381401 -92.88830566 2 -2 0 
301 7 2 1.00000000 128.19999695 -49.06629944 -3.13913321 -902.90550995 0 0 -4 
302 7 1 -1.00000000 129.10000610 -50.71913910 -4.71201897 -900.08858490 0 0 -4 
303 7 2 1.00000000 128.19999695 -51.77117920 -2.40435314 -897.30974579 0 0 -4 
304 7 2 1.00000000 128.19999695 -52.85482025 0.72882223 -894.88830566 0 0 -4 
305 7 2 1.00000000 128.19999695 -56.30716324 3.12842965 -895.93205261 0 0 -4 
306 7 1 -1.00000000 129.10000610 -58.58228302 1.39909244 -898.32996368 0 0 -4 
307 7 2 1.00000000 128.19999695 -58.12285995 -0.65508199 -901.11511230 0 0 -4 
308 7 1 -1.00000000 129.10000610 -57.80515671 -3.69373536 -903.81427765 0 0 -4 
309 7 1 -1.00000000 129.10000610 -54.57611084 -4.74423504 -905.95897675 0 0 -4 
310 7 1 -1.00000000 129.10000610 -53.60036087 -7.98452568 -908.15836334 0 0 -4 
311 7 2 1.00000000 128.19999695 -56.12214279 -7.58324289 -910.86876678 0 0 -4 
312 7 1 -1.00000000 129.10000610 -53.52653885 -5.43692970 -913.03122711 0 0 -4 
313 7 1 -1.00000000 129.10000610 -51.63543701 -7.61077118 -915.48540497 0 0 -4 
314 7 1 -1.00000000 129.10000610 -48.79315186 -5.92887640 -917.74404907 0 0 -4 
315 7 2 1.00000000 128.19999695 -51.01155472 -5.43178129 -921.13742828 0 0 -4 
316 7 2 1.00000000 128.19999695 -48.51274109 -4.36446333 -924.28871918 0 0 -4 
317 7 1 -1.00000000 129.10000610 -45.87211990 -4.50815105 -927.16378021 0 0 -4 
318 7 1 -1.00000000 129.10000610 -47.11959457 -5.47206116 -930.69217682 0 0 -4 
319 7 2 1.00000000 128.19999695 -45.13784790 -5.44001722 -934.24095917 0 0 -5 
320 7 1 -1.00000000 129.10000610 -42.63560486 -8.51352501 -934.49065399 0 0 -5 
321 7 1 -1.00000000 129.10000610 -39.05611038 -8.50940037 -933.71250153 0 0 -5 
322 7 1 -1.00000000 129.10000610 -36.80047989 -7.57995367 -936.77228546 0 0 -5 
323 7 2 1.00000000 128.19999695 -33.04226685 -7.33292437 -936.78364563 0 0 -5 
324 7 1 -1.00000000 129.10000610 -30.98062897 -9.10990810 -934.31159210 0 0 -5 
325 7 1 -1.00000000 129.10000610 -33.33364105 -11.57524109 -932.35972595 0 0 -4 
326 7 2 1.00000000 128.19999695 -32.82262421 -10.24759483 -928.92287445 0 0 -4 
327 7 2 1.00000000 128.19999695 -30.15828705 -8.83287239 -926.21512604 0 0 -4 
328 7 2 1.00000000 128.19999695 -28.97194672 -5.52553463 -924.56560516 0 0 -4 
329 7 2 1.00000000 128.19999695 -28.95889854 -1.99265611 -922.88878632 0 0 -4 
330 7 2 1.00000000 128.19999695 -31.31939697 0.85051304 -923.95942688 0 0 -4 
331 7 1 -1.00000000 129.10000610 -33.61415482 3.16932797 -922.31538391 0 0 -4 
332 7 1 -1.00000000 129.10000610 -33.24193954 7.00159216 -922.96259308 0 0 -4 
333 7 1 -1.00000000 129.10000610 -34.13632202 8.20938396 -919.43968964 0 0 -4 
334 7 2 1.00000000 128.19999695 -34.48056030 11.63124275 -917.64815521 0 0 -4 
335 7 2 1.00000000 128.19999695 -34.44596863 13.75720596 -914.61584473 0 0 -4 
336 7 2 1.00000000 128.19999695 -36.02971268 15.04896450 -911.22473145 0 0 -4 
337 7 1 -1.00000000 129.10000610 -33.10325241 14.11620045 -908.91738892 0 0 -4 
338 7 2 1.00000000 128.19999695 -33.72337341 12.40368938 -905.75207520 0 0 -4 
339 7 1 -1.00000000 129.10000610 -32.82791138 9.51067066 -903.43341827 0 0 -4 
340 7 1 -1.00000000 129.10000610 -34.78274918 7.05064392 -901.40466309 0 0 -4 
341 7 1 -1.00000000 129.10000610 -38.67380142 7.99474812 -900.91761780 0 0 -4 
342 7 2 1.00000000 128.19999695 -40.99541855 7.86633635 -897.64567566 0 0 -4 
343 7 1 -1.00000000 129.10000610 -38.80211639 4.96005869 -895.84856415 0 0 -4 
344 7 2 1.00000000 128.19999695 -36.47071457 6.16407585 -893.95061493 0 0 -4 
345 7 2 1.00000000 128.19999695 -33.53353119 7.80708933 -892.07170486 0 0 -4 
346 7 2 1.00000000 128.19999695 -32.67434692 7.41711807 -888.31583023 0 0 -4 
347 7 1 -1.00000000 129.10000610 -33.43700790 10.61523247 -885.89304352 0 0 -4 
348 7 2 1.00000000 128.19999695 -30.12673378 10.66873074 -884.12443542 0 0 -4 
349 7 1 -1.00000000 129.10000610 -27.91748047 9.59474564 -880.84017944 0 0 -4 
350 7 2 1.00000000 128.19999695 -25.80839729 10.87100792 -877.62785339 0 0 -4 
351 8 2 1.00000000 128.19999695 -31.65958405 -59.54056931 642.74721909 0 0 3 
352 8 1 -1.00000000 129.10000610 -35.06770325 -60.55659103 641.22302246 0 0 3 
353 8 2 1.00000000 128.19999695 -37.54150391 -61.74429321 643.15254021 0 0 3 
354 8 2 1.00000000 128.19999695 -36.73431396 -64.77045441 645.26256943 0 0 3 
355 8 2 1.00000000 128.19999695 -35.86866760 -64.52095032 649.08130264 0 0 3 
356 8 1 -1.00000000 129.10000610 -36.94707489 -67.01719666 651.78478050 0 0 3 
357 8 2 1.00000000 128.19999695 -37.95333099 -67.45645142 655.29305267 0 0 3 
358 8 1 -1.00000000 129.10000610 -35.11939240 -68.51986694 657.90727997 0 0 3 
359 8 1 -1.00000000 129.10000610 -31.70570946 -67.36836243 655.77600861 0 0 3 
360 8 1 -1.00000000 129.10000610 -31.68491173 -63.95252609 657.55142593 0 0 3 
361 8 2 1.00000000 128.19999695 -31.08133507 -62.14627457 660.91768646 0 0 3 
362 8 1 -1.00000000 129.10000610 -27.49505997 -62.64768600 662.45639801 0 0 3 
363 8 1 -1.00000000 129.10000610 -24.01714325 -63.35693741 660.76738358 0 0 3 
364 8 1 -1.00000000 129.10000610 -21.99291229 -60.15801620 659.62789154 0 0 3 
365 8 2 1.00000000 128.19999695 -19.14040375 -60.98520279 662.38921356 0 0 3 
366 8 2 1.00000000 128.19999695 -17.01976204 -64.08301544 661.45067596 0 0 3 
367 8 1 -1.00000000 129.10000610 -18.30007935 -66.41300201 658.94559860 0 0 3 
368 8 1 -1.00000000 129.10000610 -19.14438438 -69.56558990 657.17763138 0 0 3 
369 8 2 1.00000000 128.19999695 -17.72700882 -73.05204773 656.30307388 0 0 3 
370 8 1 -1.00000000 129.10000610 -15.17038441 -73.12545776 653.63197899 0 0 3 