ITEM: TIMESTEP
44500000 
ITEM: NUMBER OF ATOMS 
25000 
ITEM: BOX BOUNDS pp pp pp 
-103.678017 103.678017 
-103.678017 103.678017 
-103.678017 103.678017 
ITEM: ATOMS id mol type q mass xu yu zu ix iy iz 
1 1 2 1.00000000 128.19999695 586.05192566 -216.98519135 -253.09252930 3 -1 -1 
2 1 1 -1.00000000 129.10000610 585.03702545 -213.21495771 -253.47946167 3 -1 -1 
3 1 2 1.00000000 128.19999695 582.68353271 -210.12053752 -254.25122070 3 -1 -1 
4 1 2 1.00000000 128.19999695 584.52458954 -207.55967434 -252.06415939 3 -1 -1 
5 1 2 1.00000000 128.19999695 585.91731644 -206.28686559 -248.57049942 3 -1 -1 
6 1 1 -1.00000000 129.10000610 588.02890778 -209.34542453 -247.38608551 3 -1 -1 
7 1 2 1.00000000 128.19999695 585.17859650 -211.95250559 -246.81635666 3 -1 -1 
8 1 1 -1.00000000 129.10000610 583.72980118 -211.22646713 -243.53548813 3 -1 -1 
9 1 1 -1.00000000 129.10000610 582.18677521 -212.52419567 -240.60284805 3 -1 -1 
10 1 1 -1.00000000 129.10000610 578.16248322 -212.71186543 -241.13328934 3 -1 -1 
11 1 2 1.00000000 128.19999695 575.92336273 -215.46741199 -240.33388519 3 -1 -1 
12 1 1 -1.00000000 129.10000610 572.90947342 -217.30370617 -239.60436249 3 -1 -1 
13 1 1 -1.00000000 129.10000610 569.73430634 -219.01041126 -240.78741837 3 -1 -1 
14 1 1 -1.00000000 129.10000610 566.31649399 -217.80504608 -238.83703423 3 -1 -1 
15 1 2 1.00000000 128.19999695 562.21697235 -217.67419624 -239.62550354 3 -1 -1 
16 1 2 1.00000000 128.19999695 560.22761536 -216.12968922 -242.35861588 3 -1 -1 
17 1 1 -1.00000000 129.10000610 558.65065384 -213.14281654 -244.26297379 3 -1 -1 
18 1 1 -1.00000000 129.10000610 556.07044220 -211.36541986 -242.38138962 3 -1 -1 
19 1 2 1.00000000 128.19999695 556.65470886 -208.78068578 -239.78942871 3 -1 -1 
20 1 1 -1.00000000 129.10000610 558.75404739 -206.70017874 -237.19863319 3 -1 -1 
21 1 1 -1.00000000 129.10000610 560.43767166 -204.16479135 -235.47817421 3 -1 -1 
22 1 1 -1.00000000 129.10000610 558.95996857 -202.34471130 -232.47601700 3 -1 -1 
23 1 2 1.00000000 128.19999695 559.04541779 -204.75690365 -229.51082611 3 -1 -1 
24 1 1 -1.00000000 129.10000610 561.75927353 -207.29737733 -230.39272881 3 -1 -1 
25 1 1 -1.00000000 129.10000610 565.47420502 -206.71720695 -231.18395615 3 -1 -1 
26 1 2 1.00000000 128.19999695 566.51223755 -204.69548583 -234.11715126 3 -1 -1 
27 1 2 1.00000000 128.19999695 566.50782013 -202.60534191 -237.42084312 3 -1 -1 
28 1 2 1.00000000 128.19999695 565.93161774 -198.79093170 -236.77435684 3 -1 -1 
29 1 2 1.00000000 128.19999695 564.43748093 -198.62624264 -233.39368820 3 -1 -1 
30 1 2 1.00000000 128.19999695 562.02746964 -196.27934837 -231.17097092 3 -1 -1 
31 1 1 -1.00000000 129.10000610 558.42397308 -196.26226044 -230.02568054 3 -1 -1 
32 1 1 -1.00000000 129.10000610 556.31559753 -193.53253269 -231.49416733 3 -1 -1 
33 1 1 -1.00000000 129.10000610 556.96314240 -194.33525753 -235.33342743 3 -1 -1 
34 1 2 1.00000000 128.19999695 555.05546570 -194.42197323 -238.37762451 3 -1 -1 
35 1 2 1.00000000 128.19999695 554.77966309 -197.49561882 -240.92801666 3 -1 -1 
36 1 2 1.00000000 128.19999695 551.70545959 -199.04105568 -243.07555771 3 -1 -1 
37 1 1 -1.00000000 129.10000610 551.49257660 -200.41325808 -246.91002274 3 -1 -1 
38 1 2 1.00000000 128.19999695 553.33137512 -202.40816259 -249.58248901 3 -1 -1 
39 1 1 -1.00000000 129.10000610 552.88470459 -206.16658151 -249.96863556 3 -1 -1 
40 1 1 -1.00000000 129.10000610 551.47850037 -208.98452878 -247.65816498 3 -1 -1 
41 1 1 -1.00000000 129.10000610 549.25162506 -211.58765316 -248.80763626 3 -1 -1 
42 1 2 1.00000000 128.19999695 549.23992157 -214.99225569 -248.64287949 3 -1 -1 
43 1 1 -1.00000000 129.10000610 546.04980469 -216.76905251 -247.76451874 3 -1 -1 
44 1 2 1.00000000 128.19999695 542.54093933 -215.65129375 -247.51461792 3 -1 -1 
45 1 2 1.00000000 128.19999695 539.13529968 -213.75838757 -248.54660034 3 -1 -1 
46 1 2 1.00000000 128.19999695 536.13340759 -211.05881190 -247.28249359 3 -1 -1 
47 1 1 -1.00000000 129.10000610 532.69123077 -212.56731558 -247.45825577 3 -1 -1 
48 1 2 1.00000000 128.19999695 529.85317230 -211.97629404 -244.91587448 3 -1 -1 
49 1 1 -1.00000000 129.10000610 531.18611908 -211.76778221 -241.22927856 3 -1 -1 
50 1 2 1.00000000 128.19999695 533.48337555 -211.97009754 -238.23509026 3 -1 -1 
51 2 2 1.00000000 128.19999695 563.33024216 339.17306519 -246.64253616 3 2 -1 
52 2 1 -1.00000000 129.10000610 561.14970016 338.50570679 -243.70122910 3 2 -1 
53 2 2 1.00000000 128.19999695 562.16453171 337.92352295 -240.40836716 3 2 -1 
54 2 2 1.00000000 128.19999695 562.00224304 334.78894043 -238.25584984 3 2 -1 
55 2 2 1.00000000 128.19999695 563.09017181 331.00946045 -238.17261314 3 2 -1 
56 2 1 -1.00000000 129.10000610 561.90355301 328.57462311 -241.14243698 3 2 -1 
57 2 2 1.00000000 128.19999695 559.67607880 327.45509338 -244.26208496 3 2 -1 
58 2 1 -1.00000000 129.10000610 557.95343781 324.33228302 -245.61812592 3 2 -1 
59 2 1 -1.00000000 129.10000610 560.73851395 321.46095276 -245.00783539 3 2 -1 
60 2 1 -1.00000000 129.10000610 564.69481277 320.81681824 -244.76982498 3 2 -1 
61 2 2 1.00000000 128.19999695 564.95737076 317.31527710 -242.63598251 3 2 -1 
62 2 1 -1.00000000 129.10000610 566.38008118 314.10403442 -244.06037903 3 2 -1 
63 2 1 -1.00000000 129.10000610 564.32644272 312.00550842 -246.40531158 3 2 -1 
64 2 1 -1.00000000 129.10000610 564.57559204 310.07460022 -249.52517700 3 1 -1 
65 2 2 1.00000000 128.19999695 568.02602768 309.22727966 -250.96989441 3 1 -1 
66 2 2 1.00000000 128.19999695 569.83843994 306.02167511 -252.27728653 3 1 -1 
67 2 1 -1.00000000 129.10000610 571.87659073 304.35671234 -254.74429703 3 1 -1 
68 2 1 -1.00000000 129.10000610 574.24186325 304.98150635 -257.35715866 3 1 -1 
69 2 2 1.00000000 128.19999695 575.05874634 303.15628815 -260.51288986 3 1 -1 
70 2 1 -1.00000000 129.10000610 576.82011032 303.04728699 -263.60128021 3 1 -1 
71 2 1 -1.00000000 129.10000610 579.25434875 304.51771545 -266.15209579 3 1 -1 
72 2 1 -1.00000000 129.10000610 582.48622131 306.27971649 -264.92330170 3 1 -1 
73 2 2 1.00000000 128.19999695 583.16379166 308.07515717 -261.45412064 3 1 -1 
74 2 1 -1.00000000 129.10000610 584.96171188 305.27827454 -259.17958450 3 1 -1 
75 2 1 -1.00000000 129.10000610 584.37662125 304.80113220 -254.96146393 3 1 -1 
76 2 2 1.00000000 128.19999695 580.52685547 303.59186554 -254.61133194 3 1 -1 
77 2 2 1.00000000 128.19999695 578.46508408 300.20744324 -254.19172668 3 1 -1 
78 2 2 1.00000000 128.19999695 580.58985901 296.90143585 -253.79126740 3 1 -1 
79 2 2 1.00000000 128.19999695 581.47388840 296.22278595 -249.98205566 3 1 -1 
80 2 2 1.00000000 128.19999695 583.84846878 298.22969055 -247.71919250 3 1 -1 
81 2 1 -1.00000000 129.10000610 586.08496857 298.29706573 -244.74782944 3 1 -1 
82 2 1 -1.00000000 129.10000610 584.96759415 298.48665619 -241.48165512 3 1 -1 
83 2 1 -1.00000000 129.10000610 582.98348999 296.43689728 -239.27979088 3 1 -1 
84 2 2 1.00000000 128.19999695 579.90499878 294.29894257 -240.69467545 3 1 -1 
85 2 2 1.00000000 128.19999695 578.66960526 291.02538300 -239.04794502 3 1 -1 
86 2 2 1.00000000 128.19999695 578.75849152 286.97898102 -239.46693039 3 1 -1 
87 2 1 -1.00000000 129.10000610 577.01210022 285.24067688 -242.63893890 3 1 -1 
88 2 2 1.00000000 128.19999695 576.82248688 287.66080475 -245.38936996 3 1 -1 
89 2 1 -1.00000000 129.10000610 578.56763077 290.68548584 -247.04701614 3 1 -1 
90 2 1 -1.00000000 129.10000610 581.04219055 288.79417419 -249.32905197 3 1 -1 
91 2 1 -1.00000000 129.10000610 584.11657715 289.67748260 -251.63888168 3 1 -1 
92 2 2 1.00000000 128.19999695 586.52749252 292.09430695 -252.58501053 3 1 -1 
93 2 1 -1.00000000 129.10000610 589.65565872 293.95759583 -251.39465332 3 1 -1 
94 2 2 1.00000000 128.19999695 590.41171455 297.55621338 -250.05263138 3 1 -1 
95 2 2 1.00000000 128.19999695 593.45409966 299.34746552 -248.51681519 3 1 -1 
96 2 2 1.00000000 128.19999695 593.55392838 300.30577087 -245.00370026 3 1 -1 
97 2 1 -1.00000000 129.10000610 592.52650452 301.96643829 -241.57600021 3 1 -1 
98 2 2 1.00000000 128.19999695 589.59038925 301.55168152 -239.56035614 3 1 -1 
99 2 1 -1.00000000 129.10000610 587.85938644 301.08229065 -236.10042191 3 1 -1 
100 2 2 1.00000000 128.19999695 586.48826218 298.37058258 -234.32280159 3 1 -1 
101 3 2 1.00000000 128.19999695 293.07729340 -97.82228851 64.31140137 1 0 0 
102 3 1 -1.00000000 129.10000610 294.51399994 -95.54699707 61.68421173 1 0 0 
103 3 2 1.00000000 128.19999695 296.78263855 -92.62152100 62.69038773 1 0 0 
104 3 2 1.00000000 128.19999695 298.50086975 -90.28964233 65.64629364 1 0 0 
105 3 2 1.00000000 128.19999695 298.96575928 -89.93712616 69.20624542 1 0 0 
106 3 1 -1.00000000 129.10000610 299.38290405 -92.41645813 72.00704193 1 0 0 
107 3 2 1.00000000 128.19999695 300.94117737 -92.44155884 75.79125214 1 0 0 
108 3 1 -1.00000000 129.10000610 301.82884216 -91.15737152 79.30493927 1 0 0 
109 3 1 -1.00000000 129.10000610 304.92056274 -92.23650360 81.05117035 1 0 0 
110 3 1 -1.00000000 129.10000610 304.81006622 -96.01211548 82.43572998 1 0 0 
111 3 2 1.00000000 128.19999695 305.84062958 -98.84523010 80.80460358 1 0 0 
112 3 1 -1.00000000 129.10000610 309.11547089 -99.70142365 79.40631104 1 0 0 
113 3 1 -1.00000000 129.10000610 309.03253937 -97.91392517 76.16040039 1 0 0 
114 3 1 -1.00000000 129.10000610 312.06594086 -95.95410156 74.14072418 2 0 0 
115 3 2 1.00000000 128.19999695 315.38462067 -96.86308289 74.24088287 2 0 0 
116 3 2 1.00000000 128.19999695 319.02601624 -96.67803955 75.86165619 2 0 0 
117 3 1 -1.00000000 129.10000610 321.88490295 -98.91497803 75.05519867 2 0 0 
118 3 1 -1.00000000 129.10000610 325.46334076 -98.88275909 74.37579346 2 0 0 
119 3 2 1.00000000 128.19999695 326.78669739 -102.13982391 75.71119690 2 0 0 
120 3 1 -1.00000000 129.10000610 329.43141937 -102.37481689 78.36418915 2 0 0 
121 3 1 -1.00000000 129.10000610 332.55043030 -100.12840271 79.57062531 2 0 0 
122 3 1 -1.00000000 129.10000610 334.61913300 -98.23262787 82.32106018 2 0 0 
123 3 2 1.00000000 128.19999695 334.88862610 -94.99034119 80.31624603 2 0 0 
124 3 1 -1.00000000 129.10000610 333.64421844 -94.00679779 76.70995331 2 0 0 
125 3 1 -1.00000000 129.10000610 335.58201599 -91.08345795 74.93672943 2 0 0 
126 3 2 1.00000000 128.19999695 337.84230804 -89.70355225 77.43096924 2 0 0 
127 3 2 1.00000000 128.19999695 341.49235535 -89.56021118 76.66841888 2 0 0 
128 3 2 1.00000000 128.19999695 344.42591858 -91.15890503 78.56385803 2 0 0 
129 3 2 1.00000000 128.19999695 347.75103760 -91.10980225 76.91461945 2 0 0 
130 3 2 1.00000000 128.19999695 351.35617065 -90.18328857 78.14393616 2 0 0 
131 3 1 -1.00000000 129.10000610 353.37749863 -87.45915222 76.79491425 2 0 0 
132 3 1 -1.00000000 129.10000610 355.95839310 -84.73940277 77.07919312 2 0 0 
133 3 1 -1.00000000 129.10000610 353.59886169 -81.52864838 76.15775299 2 0 0 
134 3 2 1.00000000 128.19999695 353.48189163 -81.92636108 72.06724548 2 0 0 
135 3 2 1.00000000 128.19999695 350.27747345 -80.79441833 70.00091553 2 0 0 
136 3 2 1.00000000 128.19999695 346.81971741 -81.26919556 68.17299652 2 0 0 
137 3 1 -1.00000000 129.10000610 342.82446289 -80.99235535 68.28465271 2 0 0 
138 3 2 1.00000000 128.19999695 340.47085571 -83.67483521 70.49579620 2 0 0 
139 3 1 -1.00000000 129.10000610 338.05513000 -84.19116974 73.65753174 2 0 0 
140 3 1 -1.00000000 129.10000610 336.58099365 -80.56546021 73.58210754 2 0 0 
141 3 1 -1.00000000 129.10000610 336.56200409 -76.77690887 73.04097748 2 0 0 
142 3 2 1.00000000 128.19999695 337.91397095 -75.26215363 76.28437805 2 0 0 
143 3 1 -1.00000000 129.10000610 340.31864929 -72.37285614 75.67185211 2 0 0 
144 3 2 1.00000000 128.19999695 341.36059570 -68.95476532 74.93824005 2 0 0 
145 3 2 1.00000000 128.19999695 341.01129913 -65.41908264 76.87800598 2 0 0 
146 3 2 1.00000000 128.19999695 340.02524567 -63.80550003 79.84748840 2 0 0 
147 3 1 -1.00000000 129.10000610 338.73874664 -60.12112427 79.77029419 2 0 0 
148 3 2 1.00000000 128.19999695 341.23645020 -57.15948105 80.98651886 2 0 0 
149 3 1 -1.00000000 129.10000610 343.75729370 -59.63657379 82.50965118 2 0 0 
150 3 2 1.00000000 128.19999695 347.24784088 -59.10022736 83.29862976 2 0 0 
151 4 2 1.00000000 128.19999695 -231.92545891 353.71979904 15.86087418 -1 2 0 
152 4 1 -1.00000000 129.10000610 -233.04578972 357.53135300 15.39211273 -1 2 0 
153 4 2 1.00000000 128.19999695 -235.71184349 360.27858734 15.16022301 -1 2 0 
154 4 2 1.00000000 128.19999695 -233.91298103 362.65695953 12.76483440 -1 2 0 
155 4 2 1.00000000 128.19999695 -232.10821724 365.97718811 13.84386063 -1 2 0 
156 4 1 -1.00000000 129.10000610 -233.61415100 368.69637680 11.81592274 -1 2 0 
157 4 2 1.00000000 128.19999695 -233.35772705 369.73655319 8.59867668 -1 2 0 
158 4 1 -1.00000000 129.10000610 -231.10696793 372.48675156 7.29965544 -1 2 0 
159 4 1 -1.00000000 129.10000610 -229.28609657 374.71341324 9.75167656 -1 2 0 
160 4 1 -1.00000000 129.10000610 -229.11281204 375.10476685 13.74186516 -1 2 0 
161 4 2 1.00000000 128.19999695 -226.60014153 372.50257111 14.59476948 -1 2 0 
162 4 1 -1.00000000 129.10000610 -222.92919731 370.91884995 16.08719826 -1 2 0 
163 4 1 -1.00000000 129.10000610 -222.60910034 367.23791122 14.83758163 -1 2 0 
164 4 1 -1.00000000 129.10000610 -226.00101471 365.37158966 15.88660145 -1 2 0 
165 4 2 1.00000000 128.19999695 -227.75353813 366.80611801 19.34009933 -1 2 0 
166 4 2 1.00000000 128.19999695 -227.98829651 370.25073624 21.72645760 -1 2 0 
167 4 1 -1.00000000 129.10000610 -227.04448509 370.43497086 25.40991974 -1 2 0 
168 4 1 -1.00000000 129.10000610 -224.06329536 368.03153610 25.93858528 -1 2 0 
169 4 2 1.00000000 128.19999695 -222.96798420 364.48528671 24.97971153 -1 2 0 
170 4 1 -1.00000000 129.10000610 -225.43609810 362.02393341 26.31294441 -1 2 0 
171 4 1 -1.00000000 129.10000610 -223.84208870 358.73127747 26.57306099 -1 2 0 
172 4 1 -1.00000000 129.10000610 -220.67337704 357.31415176 28.14812279 -1 2 0 
173 4 2 1.00000000 128.19999695 -216.89043999 358.45975876 28.79684830 -1 2 0 
174 4 1 -1.00000000 129.10000610 -214.56463289 356.06238556 30.36246681 -1 2 0 
175 4 1 -1.00000000 129.10000610 -214.91779757 352.47426224 29.18227768 -1 2 0 
176 4 2 1.00000000 128.19999695 -216.14076996 349.48634338 28.31593704 -1 2 0 
177 4 2 1.00000000 128.19999695 -217.23228073 346.98585510 25.24506187 -1 2 0 
178 4 2 1.00000000 128.19999695 -219.46249104 344.78752899 26.82249451 -1 2 0 
179 4 2 1.00000000 128.19999695 -222.66165447 345.88651276 29.21718025 -1 2 0 
180 4 2 1.00000000 128.19999695 -223.45269394 349.66460419 29.50986290 -1 2 0 
181 4 1 -1.00000000 129.10000610 -222.67043304 350.76584625 32.93055725 -1 2 0 
182 4 1 -1.00000000 129.10000610 -219.14727306 351.41272736 33.27529526 -1 2 0 
183 4 1 -1.00000000 129.10000610 -218.99756527 353.24919510 36.28815079 -1 2 0 
184 4 2 1.00000000 128.19999695 -218.37981987 355.73865891 39.12694931 -1 2 0 
185 4 2 1.00000000 128.19999695 -217.77365780 359.61272049 39.74664307 -1 2 0 
186 4 2 1.00000000 128.19999695 -220.22108269 362.81956100 39.17459488 -1 2 0 
187 4 1 -1.00000000 129.10000610 -223.88013268 362.01589203 39.96505737 -1 2 0 
188 4 2 1.00000000 128.19999695 -226.08498955 359.84306717 41.75817490 -1 2 0 
189 4 1 -1.00000000 129.10000610 -228.34673309 358.25115204 44.37447357 -1 2 0 
190 4 1 -1.00000000 129.10000610 -227.15720940 355.82265472 46.67819977 -1 2 0 
191 4 1 -1.00000000 129.10000610 -224.53781891 355.49502182 49.33003235 -1 2 0 
192 4 2 1.00000000 128.19999695 -222.03490448 358.24555969 50.37682724 -1 2 0 
193 4 1 -1.00000000 129.10000610 -220.67555141 360.54972458 53.26995468 -1 2 0 
194 4 2 1.00000000 128.19999695 -222.73480606 361.78462219 56.14902496 -1 2 0 
195 4 2 1.00000000 128.19999695 -220.66652584 363.21140671 59.08094406 -1 2 0 
196 4 2 1.00000000 128.19999695 -219.48163795 362.04048920 62.57166672 -1 2 0 
197 4 1 -1.00000000 129.10000610 -216.24437332 361.95484924 64.87401581 -1 2 0 
198 4 2 1.00000000 128.19999695 -213.60151148 361.82752228 67.84142303 -1 2 0 
199 4 1 -1.00000000 129.10000610 -213.76963949 359.61417389 71.06436157 -1 2 0 
200 4 2 1.00000000 128.19999695 -217.56722927 359.20029831 71.48056793 -1 2 0 
201 5 2 1.00000000 128.19999695 -236.08182716 -229.65259361 -182.69889069 -1 -1 -1 
202 5 1 -1.00000000 129.10000610 -232.78731537 -229.93244171 -181.64739990 -1 -1 -1 
203 5 2 1.00000000 128.19999695 -229.48200226 -231.97614479 -182.01885605 -1 -1 -1 
204 5 2 1.00000000 128.19999695 -226.08975029 -231.00493431 -183.37768173 -1 -1 -1 
205 5 2 1.00000000 128.19999695 -223.55748749 -233.65562057 -184.01250839 -1 -1 -1 
206 5 1 -1.00000000 129.10000610 -223.63138962 -237.13673401 -183.13303185 -1 -1 -1 
207 5 2 1.00000000 128.19999695 -223.62516403 -236.94527817 -179.17820358 -1 -1 -1 
208 5 1 -1.00000000 129.10000610 -224.96912956 -239.42731857 -176.87025261 -1 -1 -1 
209 5 1 -1.00000000 129.10000610 -228.04455948 -241.29475784 -175.30410385 -1 -1 -1 
210 5 1 -1.00000000 129.10000610 -231.55808640 -242.33420563 -174.22394943 -1 -1 -1 
211 5 2 1.00000000 128.19999695 -232.90695000 -244.99049377 -172.42307663 -1 -1 -1 
212 5 1 -1.00000000 129.10000610 -236.32918739 -245.83289337 -170.66413879 -1 -1 -1 
213 5 1 -1.00000000 129.10000610 -238.17748451 -249.02454758 -169.96760559 -1 -1 -1 
214 5 1 -1.00000000 129.10000610 -237.58466721 -252.32030106 -171.86111832 -1 -1 -1 
215 5 2 1.00000000 128.19999695 -233.87988853 -252.72333527 -173.13710403 -1 -1 -1 
216 5 2 1.00000000 128.19999695 -233.68376350 -254.69352341 -176.07659340 -1 -1 -1 
217 5 1 -1.00000000 129.10000610 -237.36635399 -254.79164505 -177.57875061 -1 -1 -1 
218 5 1 -1.00000000 129.10000610 -238.70952415 -254.14841080 -181.15194893 -1 -1 -1 
219 5 2 1.00000000 128.19999695 -238.02095222 -250.80328751 -182.46711731 -1 -1 -1 
220 5 1 -1.00000000 129.10000610 -239.94888687 -247.94860077 -180.90833855 -1 -1 -1 
221 5 1 -1.00000000 129.10000610 -243.39270020 -247.35833359 -182.70504570 -1 -1 -1 
222 5 1 -1.00000000 129.10000610 -244.86359024 -250.64060974 -183.57502937 -1 -1 -1 
223 5 2 1.00000000 128.19999695 -248.65574646 -251.74469376 -184.39912415 -1 -1 -1 
224 5 1 -1.00000000 129.10000610 -251.99922562 -251.79742050 -183.07388496 -1 -1 -1 
225 5 1 -1.00000000 129.10000610 -253.20153427 -255.55450821 -184.01056480 -1 -1 -1 
226 5 2 1.00000000 128.19999695 -254.55295181 -259.20170593 -184.42034721 -1 -1 -1 
227 5 2 1.00000000 128.19999695 -256.49331284 -259.23585129 -187.65468025 -1 -1 -1 
228 5 2 1.00000000 128.19999695 -258.63138962 -256.29042435 -188.02838516 -1 -1 -1 
229 5 2 1.00000000 128.19999695 -259.53033066 -255.13973618 -191.52387238 -1 -1 -1 
230 5 2 1.00000000 128.19999695 -258.55514526 -255.71903992 -195.38365650 -1 -1 -1 
231 5 1 -1.00000000 129.10000610 -260.02005386 -252.46636963 -197.52497864 -1 -1 -1 
232 5 1 -1.00000000 129.10000610 -263.54983521 -253.00646210 -196.42562199 -1 -1 -1 
233 5 1 -1.00000000 129.10000610 -265.04052353 -256.37178802 -196.99172497 -1 -1 -1 
234 5 2 1.00000000 128.19999695 -263.73357010 -257.94194794 -200.13305187 -1 -1 -1 
235 5 2 1.00000000 128.19999695 -263.60152435 -255.91332245 -203.30969620 -1 -1 -1 
236 5 2 1.00000000 128.19999695 -263.02696609 -254.92371368 -206.97873250 -1 -1 -1 
237 5 1 -1.00000000 129.10000610 -262.58232880 -256.02590942 -210.50056267 -1 -1 -1 
238 5 2 1.00000000 128.19999695 -259.52807236 -258.58699799 -211.20919156 -1 -1 -1 
239 5 1 -1.00000000 129.10000610 -255.82641602 -258.41407776 -209.95807600 -1 -1 -1 
240 5 1 -1.00000000 129.10000610 -254.98466110 -261.91326141 -209.89351130 -1 -1 -1 
241 5 1 -1.00000000 129.10000610 -254.56854630 -265.43453217 -210.95489883 -1 -1 -1 
242 5 2 1.00000000 128.19999695 -257.73220444 -267.44152451 -210.34609032 -1 -1 -1 
243 5 1 -1.00000000 129.10000610 -260.50205231 -270.62477493 -210.76125884 -1 -1 -1 
244 5 2 1.00000000 128.19999695 -264.29610825 -271.35189438 -210.41476798 -1 -1 -1 
245 5 2 1.00000000 128.19999695 -267.35675430 -268.70384598 -210.59915018 -1 -1 -1 
246 5 2 1.00000000 128.19999695 -267.41602707 -265.05470276 -210.63878465 -1 -1 -1 
247 5 1 -1.00000000 129.10000610 -264.40480804 -263.48352051 -209.10436726 -1 -1 -1 
248 5 2 1.00000000 128.19999695 -262.68143463 -263.24456406 -205.93831575 -1 -1 -1 
249 5 1 -1.00000000 129.10000610 -261.99912643 -264.18711090 -202.19971657 -1 -1 -1 
250 5 2 1.00000000 128.19999695 -261.52806473 -264.76628494 -198.25586987 -1 -1 -1 
251 6 2 1.00000000 128.19999695 538.13290405 -482.84420776 -61.39160538 3 -2 0 
252 6 1 -1.00000000 129.10000610 536.29936218 -486.07086182 -60.41723633 3 -2 0 
253 6 2 1.00000000 128.19999695 536.52330780 -488.45785522 -57.27528763 3 -2 0 
254 6 2 1.00000000 128.19999695 537.10887146 -487.40058899 -53.96165848 3 -2 0 
255 6 2 1.00000000 128.19999695 534.88811493 -484.60590363 -52.76440048 3 -2 0 
256 6 1 -1.00000000 129.10000610 533.13389587 -481.67520905 -54.74497986 3 -2 0 
257 6 2 1.00000000 128.19999695 533.86189270 -479.07857513 -56.90479660 3 -2 0 
258 6 1 -1.00000000 129.10000610 535.79792786 -476.71771622 -59.35567093 3 -2 0 
259 6 1 -1.00000000 129.10000610 538.25357819 -476.21271133 -62.30213928 3 -2 0 
260 6 1 -1.00000000 129.10000610 541.35128784 -475.00034332 -63.65613937 3 -2 0 
261 6 2 1.00000000 128.19999695 544.19163513 -476.26836777 -65.67122650 3 -2 0 
262 6 1 -1.00000000 129.10000610 544.24222565 -474.83185577 -69.18000031 3 -2 0 
263 6 1 -1.00000000 129.10000610 546.53309631 -472.41191864 -70.94882965 3 -2 0 
264 6 1 -1.00000000 129.10000610 549.79125214 -471.56718445 -72.92534637 3 -2 0 
265 6 2 1.00000000 128.19999695 549.94426727 -471.31560135 -76.83433533 3 -2 0 
266 6 2 1.00000000 128.19999695 549.68399048 -468.76496506 -79.50302124 3 -2 0 
267 6 1 -1.00000000 129.10000610 553.46915436 -469.32273102 -80.83924866 3 -2 0 
268 6 1 -1.00000000 129.10000610 556.60429382 -471.24298859 -81.77375031 3 -2 0 
269 6 2 1.00000000 128.19999695 555.75147247 -474.43342590 -83.87142944 3 -2 0 
270 6 1 -1.00000000 129.10000610 552.24191284 -474.65204239 -83.83585358 3 -2 0 
271 6 1 -1.00000000 129.10000610 548.42236328 -474.29078293 -83.20455170 3 -2 0 
272 6 1 -1.00000000 129.10000610 544.69058990 -475.05966568 -82.85737610 3 -2 0 
273 6 2 1.00000000 128.19999695 542.06482697 -472.78516769 -84.03130341 3 -2 0 
274 6 1 -1.00000000 129.10000610 538.79091644 -470.74888992 -84.60299683 3 -2 0 
275 6 1 -1.00000000 129.10000610 536.20842743 -468.90355682 -86.56252289 3 -2 0 
276 6 2 1.00000000 128.19999695 534.53037262 -471.55687714 -89.16944122 3 -2 0 
277 6 2 1.00000000 128.19999695 536.82423401 -472.12395859 -91.89628601 3 -2 0 
278 6 2 1.00000000 128.19999695 537.56899261 -475.33634949 -93.97610474 3 -2 0 
279 6 2 1.00000000 128.19999695 535.52973938 -478.37401199 -95.18178558 3 -2 0 
280 6 2 1.00000000 128.19999695 533.01280212 -476.70868301 -97.85558319 3 -2 0 
281 6 1 -1.00000000 129.10000610 532.95497894 -477.11433029 -101.55345154 3 -2 0 
282 6 1 -1.00000000 129.10000610 536.40667725 -476.90833664 -102.80864716 3 -2 0 
283 6 1 -1.00000000 129.10000610 538.44802856 -474.20599365 -104.68126678 3 -2 -1 
284 6 2 1.00000000 128.19999695 541.04691315 -472.26690674 -102.32561493 3 -2 0 
285 6 2 1.00000000 128.19999695 543.12477875 -474.31601715 -99.97306824 3 -2 0 
286 6 2 1.00000000 128.19999695 542.54053497 -477.46786880 -97.96043396 3 -2 0 
287 6 1 -1.00000000 129.10000610 542.64533234 -480.81893158 -95.50869751 3 -2 0 
288 6 2 1.00000000 128.19999695 543.21872711 -484.36623383 -94.35433960 3 -2 0 
289 6 1 -1.00000000 129.10000610 544.84726715 -487.95682526 -94.91046143 3 -2 0 
290 6 1 -1.00000000 129.10000610 547.74805450 -490.44882965 -95.34843445 3 -2 0 
291 6 1 -1.00000000 129.10000610 548.67964172 -492.01234436 -98.75562286 3 -2 0 
292 6 2 1.00000000 128.19999695 548.20341492 -490.32695007 -102.56254578 3 -2 0 
293 6 1 -1.00000000 129.10000610 546.56545258 -492.17006683 -105.85684967 3 -2 -1 
294 6 2 1.00000000 128.19999695 544.29486084 -489.86631012 -107.83689117 3 -2 -1 
295 6 2 1.00000000 128.19999695 540.92268372 -489.98545074 -109.48588562 3 -2 -1 
296 6 2 1.00000000 128.19999695 540.51682281 -486.52941132 -111.56008148 3 -2 -1 
297 6 1 -1.00000000 129.10000610 540.52054596 -483.40419006 -108.88299561 3 -2 -1 
298 6 2 1.00000000 128.19999695 537.78532410 -480.48369598 -109.94249725 3 -2 -1 
299 6 1 -1.00000000 129.10000610 534.06742096 -479.46652985 -110.84662628 3 -2 -1 
300 6 2 1.00000000 128.19999695 532.32247162 -477.44789505 -108.02653503 3 -2 -1 
301 7 2 1.00000000 128.19999695 21.10309792 -104.79949188 -807.65022087 0 -1 -4 
302 7 1 -1.00000000 129.10000610 17.68548203 -104.78813171 -807.89340210 0 -1 -4 
303 7 2 1.00000000 128.19999695 14.80373001 -105.62741852 -810.00801659 0 -1 -4 
304 7 2 1.00000000 128.19999695 11.22818089 -104.29663849 -809.64641571 0 -1 -4 
305 7 2 1.00000000 128.19999695 8.44301987 -102.13272095 -810.16146660 0 0 -4 
306 7 1 -1.00000000 129.10000610 4.95317078 -103.82323456 -810.84216881 0 -1 -4 
307 7 2 1.00000000 128.19999695 1.17084467 -103.39002991 -810.83753204 0 0 -4 
308 7 1 -1.00000000 129.10000610 0.16727485 -99.59835052 -810.84496498 0 0 -4 
309 7 1 -1.00000000 129.10000610 -2.17140937 -98.82072449 -814.10279179 0 0 -4 
310 7 1 -1.00000000 129.10000610 -4.09788609 -99.76305389 -817.00477123 0 0 -4 
311 7 2 1.00000000 128.19999695 -7.06666470 -100.39633942 -818.90244770 0 0 -4 
312 7 1 -1.00000000 129.10000610 -8.75154591 -98.57947540 -821.91376638 0 0 -4 
313 7 1 -1.00000000 129.10000610 -9.94893456 -100.30238342 -825.00389290 0 0 -4 
314 7 1 -1.00000000 129.10000610 -13.36233616 -101.55155182 -826.24578643 0 0 -4 
315 7 2 1.00000000 128.19999695 -14.61481667 -102.76936340 -822.61571264 0 0 -4 
316 7 2 1.00000000 128.19999695 -18.47080994 -102.60408783 -822.06266451 0 0 -4 
317 7 1 -1.00000000 129.10000610 -20.83432579 -103.36818695 -824.67808151 0 0 -4 
318 7 1 -1.00000000 129.10000610 -23.27021790 -102.87767029 -827.50242829 0 0 -4 
319 7 2 1.00000000 128.19999695 -22.62660789 -100.26438904 -830.37381715 0 0 -4 
320 7 1 -1.00000000 129.10000610 -19.92216301 -97.36077118 -830.11939561 0 0 -4 
321 7 1 -1.00000000 129.10000610 -20.60999680 -95.44131470 -826.72386599 0 0 -4 
322 7 1 -1.00000000 129.10000610 -17.61380959 -95.71536255 -823.88688374 0 0 -4 
323 7 2 1.00000000 128.19999695 -17.53467941 -94.91457367 -820.15160942 0 0 -4 
324 7 1 -1.00000000 129.10000610 -16.68279648 -97.45425415 -817.07517910 0 0 -4 
325 7 1 -1.00000000 129.10000610 -14.84572601 -99.49176788 -814.42841721 0 0 -4 
326 7 2 1.00000000 128.19999695 -11.18727398 -97.97309113 -814.18147755 0 0 -4 
327 7 2 1.00000000 128.19999695 -8.44056511 -95.45465851 -813.19408989 0 0 -4 
328 7 2 1.00000000 128.19999695 -6.17151070 -92.34698486 -813.84417152 0 0 -4 
329 7 2 1.00000000 128.19999695 -2.50731373 -92.36511993 -814.29710865 0 0 -4 
330 7 2 1.00000000 128.19999695 0.83323687 -93.44374847 -812.83793831 0 0 -4 
331 7 1 -1.00000000 129.10000610 3.51144433 -92.33359528 -810.45663834 0 0 -4 
332 7 1 -1.00000000 129.10000610 3.72745109 -92.06893921 -806.68031311 0 0 -4 
333 7 1 -1.00000000 129.10000610 5.58787394 -94.43000031 -804.41539383 0 0 -4 
334 7 2 1.00000000 128.19999695 8.78895855 -93.04959106 -803.67441559 0 0 -4 
335 7 2 1.00000000 128.19999695 9.30957508 -89.74118805 -805.35134125 0 0 -4 
336 7 2 1.00000000 128.19999695 12.25748539 -89.97453308 -807.85377884 0 0 -4 
337 7 1 -1.00000000 129.10000610 12.50860119 -86.92921448 -809.98583412 0 0 -4 
338 7 2 1.00000000 128.19999695 12.46911049 -83.39694977 -808.40627480 0 0 -4 
339 7 1 -1.00000000 129.10000610 14.04427242 -84.41635895 -805.15641785 0 0 -4 
340 7 1 -1.00000000 129.10000610 15.32791615 -86.92187500 -802.16801262 0 0 -4 
341 7 1 -1.00000000 129.10000610 14.47044468 -87.86338806 -798.61730957 0 0 -4 
342 7 2 1.00000000 128.19999695 17.63964462 -88.88288879 -796.76139832 0 0 -4 
343 7 1 -1.00000000 129.10000610 19.30262184 -86.05139160 -795.35788345 0 0 -4 
344 7 2 1.00000000 128.19999695 19.27811050 -82.38078308 -795.58452988 0 0 -4 
345 7 2 1.00000000 128.19999695 19.79650688 -81.59572601 -799.10873604 0 0 -4 
346 7 2 1.00000000 128.19999695 22.06657982 -81.17924500 -802.09565163 0 0 -4 
347 7 1 -1.00000000 129.10000610 25.94032860 -81.81507111 -802.00271225 0 0 -4 
348 7 2 1.00000000 128.19999695 27.62389565 -81.59377289 -798.62806129 0 0 -4 
349 7 1 -1.00000000 129.10000610 27.42805672 -83.96694946 -795.90576935 0 0 -4 
350 7 2 1.00000000 128.19999695 28.11408997 -83.67438507 -791.95146179 0 0 -4 
351 8 2 1.00000000 128.19999695 46.71239090 -237.42436981 634.39205456 0 -1 3 
352 8 1 -1.00000000 129.10000610 43.65151596 -238.63466835 633.23128796 0 -1 3 
353 8 2 1.00000000 128.19999695 40.29785919 -238.06807137 631.34273815 0 -1 3 
354 8 2 1.00000000 128.19999695 39.92144394 -234.65461349 629.86158371 0 -1 3 
355 8 2 1.00000000 128.19999695 39.12657928 -231.34278488 631.73836803 0 -1 3 
356 8 1 -1.00000000 129.10000610 37.21899796 -232.50310707 635.18729019 0 -1 3 
357 8 2 1.00000000 128.19999695 33.31459045 -232.31832504 634.84700871 0 -1 3 
358 8 1 -1.00000000 129.10000610 31.06395531 -230.13620567 632.67019463 0 -1 3 
359 8 1 -1.00000000 129.10000610 32.79288483 -227.86285973 630.45259285 0 -1 3 
360 8 1 -1.00000000 129.10000610 34.33939362 -230.46960640 627.99711227 0 -1 3 
361 8 2 1.00000000 128.19999695 32.76095200 -232.45311546 624.87981081 0 -1 3 
362 8 1 -1.00000000 129.10000610 33.40708160 -236.12474632 624.19811416 0 -1 3 
363 8 1 -1.00000000 129.10000610 36.66056061 -237.00088882 622.89555681 0 -1 3 
364 8 1 -1.00000000 129.10000610 37.58685303 -240.38120651 621.95041148 0 -1 3 
365 8 2 1.00000000 128.19999695 37.21798706 -243.04800797 619.53734851 0 -1 3 
366 8 2 1.00000000 128.19999695 34.17618561 -241.73007965 617.71244287 0 -1 3 
367 8 1 -1.00000000 129.10000610 30.47401047 -240.34978867 618.34924579 0 -1 3 
368 8 1 -1.00000000 129.10000610 29.03332520 -240.89540100 621.98127400 0 -1 3 
369 8 2 1.00000000 128.19999695 27.37735558 -238.54565811 624.26985455 0 -1 3 
370 8 1 -1.00000000 129.10000610 27.24556160 -234.63714027 624.44322419 0 -1 3 