ITEM: TIMESTEP
42550000 
ITEM: NUMBER OF ATOMS 
25000 
ITEM: BOX BOUNDS pp pp pp 
-103.678017 103.678017 
-103.678017 103.678017 
-103.678017 103.678017 
ITEM: ATOMS id mol type q mass xu yu zu ix iy iz 
1 1 2 1.00000000 128.19999695 426.31825352 -118.80459595 -305.85076141 2 -1 -1 
2 1 1 -1.00000000 129.10000610 423.85042953 -116.46032715 -304.24260712 2 -1 -1 
3 1 2 1.00000000 128.19999695 424.55540276 -112.75656128 -304.27843475 2 -1 -1 
4 1 2 1.00000000 128.19999695 427.28953266 -111.19189453 -301.55352783 2 -1 -1 
5 1 2 1.00000000 128.19999695 426.57910061 -110.70145416 -297.85332489 2 -1 -1 
6 1 1 -1.00000000 129.10000610 428.71312714 -112.18494415 -295.23052216 2 -1 -1 
7 1 2 1.00000000 128.19999695 427.92144012 -113.56124115 -292.22081757 2 -1 -1 
8 1 1 -1.00000000 129.10000610 429.64078426 -115.00505829 -288.99452209 2 -1 -1 
9 1 1 -1.00000000 129.10000610 432.20003700 -112.13529205 -288.12905121 2 -1 -1 
10 1 1 -1.00000000 129.10000610 435.81866837 -112.23489380 -288.44169617 2 -1 -1 
11 1 2 1.00000000 128.19999695 439.66054535 -112.97811127 -287.55730438 2 -1 -1 
12 1 1 -1.00000000 129.10000610 443.37763214 -112.97633362 -286.82517242 2 -1 -1 
13 1 1 -1.00000000 129.10000610 446.73553848 -114.66003418 -287.05403900 2 -1 -1 
14 1 1 -1.00000000 129.10000610 447.16421890 -116.70479584 -284.09778595 2 -1 -1 
15 1 2 1.00000000 128.19999695 448.71254349 -119.77025604 -282.96495819 2 -1 -1 
16 1 2 1.00000000 128.19999695 451.66950226 -122.07809448 -282.52629852 2 -1 -1 
17 1 1 -1.00000000 129.10000610 453.91764450 -120.11939240 -279.71974945 2 -1 -1 
18 1 1 -1.00000000 129.10000610 456.04683304 -117.75767517 -281.75880432 2 -1 -1 
19 1 2 1.00000000 128.19999695 457.29099274 -114.16727448 -282.19230652 2 -1 -1 
20 1 1 -1.00000000 129.10000610 457.16857910 -110.40943909 -282.99217224 2 -1 -1 
21 1 1 -1.00000000 129.10000610 460.74753189 -109.26551056 -284.11673737 2 -1 -1 
22 1 1 -1.00000000 129.10000610 460.61801910 -111.14064026 -287.44387817 2 -1 -1 
23 1 2 1.00000000 128.19999695 463.19137573 -112.23191833 -290.08071136 2 -1 -1 
24 1 1 -1.00000000 129.10000610 465.80323029 -115.35391235 -291.06477356 2 -1 -1 
25 1 1 -1.00000000 129.10000610 469.51220322 -114.24224091 -291.29084015 2 -1 -1 
26 1 2 1.00000000 128.19999695 470.89491653 -110.95877075 -292.59951019 2 -1 -1 
27 1 2 1.00000000 128.19999695 469.73214722 -108.09041595 -290.93519592 2 -1 -1 
28 1 2 1.00000000 128.19999695 470.67754364 -104.47532654 -292.18128204 2 -1 -1 
29 1 2 1.00000000 128.19999695 470.71736908 -102.48226929 -295.27371979 2 0 -1 
30 1 2 1.00000000 128.19999695 468.10225296 -103.52347565 -297.86959839 2 0 -1 
31 1 1 -1.00000000 129.10000610 468.40636826 -103.01705933 -301.60244751 2 0 -1 
32 1 1 -1.00000000 129.10000610 467.96038055 -103.39787292 -305.36804962 2 0 -1 
33 1 1 -1.00000000 129.10000610 466.73485947 -100.50701904 -307.66486359 2 0 -1 
34 1 2 1.00000000 128.19999695 469.91581345 -100.60611725 -310.11417389 2 0 -1 
35 1 2 1.00000000 128.19999695 472.96319580 -100.00910187 -312.19773865 2 0 -2 
36 1 2 1.00000000 128.19999695 472.10911179 -98.28541565 -315.57265472 2 0 -2 
37 1 1 -1.00000000 129.10000610 470.21170807 -99.73867798 -318.35869598 2 0 -2 
38 1 2 1.00000000 128.19999695 467.92225266 -97.66539001 -320.07823181 2 0 -2 
39 1 1 -1.00000000 129.10000610 465.38150024 -96.36953735 -317.23757935 2 0 -2 
40 1 1 -1.00000000 129.10000610 464.83065796 -99.40306854 -315.04238129 2 0 -2 
41 1 1 -1.00000000 129.10000610 462.58345032 -102.43619537 -316.09349823 2 0 -2 
42 1 2 1.00000000 128.19999695 458.72407913 -101.68605804 -317.15307617 2 0 -2 
43 1 1 -1.00000000 129.10000610 459.52489853 -101.27200317 -320.76982117 2 0 -2 
44 1 2 1.00000000 128.19999695 458.92187119 -102.14118195 -324.30215454 2 0 -2 
45 1 2 1.00000000 128.19999695 458.87299347 -99.53424835 -326.67903900 2 0 -2 
46 1 2 1.00000000 128.19999695 456.44153595 -97.57854462 -328.35046387 2 0 -2 
47 1 1 -1.00000000 129.10000610 453.32680511 -95.62222290 -327.93589783 2 0 -2 
48 1 2 1.00000000 128.19999695 450.14749908 -95.47876740 -329.78100586 2 0 -2 
49 1 1 -1.00000000 129.10000610 449.77484894 -96.25824738 -333.57730865 2 0 -2 
50 1 2 1.00000000 128.19999695 452.03876495 -98.01102448 -335.89273834 2 0 -2 
51 2 2 1.00000000 128.19999695 450.40391159 390.88039970 -352.84706879 2 2 -2 
52 2 1 -1.00000000 129.10000610 449.18309784 391.77728653 -349.25428772 2 2 -2 
53 2 2 1.00000000 128.19999695 447.80549622 393.61127853 -346.36135864 2 2 -2 
54 2 2 1.00000000 128.19999695 444.07202911 394.32794189 -346.46989441 2 2 -2 
55 2 2 1.00000000 128.19999695 440.34207726 393.43015099 -345.53402710 2 2 -2 
56 2 1 -1.00000000 129.10000610 438.77677155 393.63069916 -341.81993866 2 2 -2 
57 2 2 1.00000000 128.19999695 440.17486382 394.65407181 -338.45866394 2 2 -2 
58 2 1 -1.00000000 129.10000610 443.97158241 396.00009918 -337.33795929 2 2 -2 
59 2 1 -1.00000000 129.10000610 445.82505989 393.31825256 -335.78776550 2 2 -2 
60 2 1 -1.00000000 129.10000610 445.24100113 389.92138672 -333.77652740 2 2 -2 
61 2 2 1.00000000 128.19999695 445.54236412 387.86975670 -337.38599396 2 2 -2 
62 2 1 -1.00000000 129.10000610 444.77103996 386.57520294 -341.18162537 2 2 -2 
63 2 1 -1.00000000 129.10000610 442.08955383 388.29228973 -343.86963654 2 2 -2 
64 2 1 -1.00000000 129.10000610 439.52046394 386.60656357 -346.43028259 2 2 -2 
65 2 2 1.00000000 128.19999695 436.07430840 385.40719032 -346.19254303 2 2 -2 
66 2 2 1.00000000 128.19999695 437.04748154 381.66500092 -345.31813049 2 2 -2 
67 2 1 -1.00000000 129.10000610 439.64000130 379.45511627 -347.28939819 2 2 -2 
68 2 1 -1.00000000 129.10000610 438.51171875 377.64137650 -350.25271606 2 2 -2 
69 2 2 1.00000000 128.19999695 436.14357758 374.89541245 -349.22351837 2 2 -2 
70 2 1 -1.00000000 129.10000610 435.55660629 371.69193649 -350.78067017 2 2 -2 
71 2 1 -1.00000000 129.10000610 433.24139404 370.27949905 -353.32353973 2 2 -2 
72 2 1 -1.00000000 129.10000610 432.44626427 372.54162979 -356.44836807 2 2 -2 
73 2 2 1.00000000 128.19999695 430.00158310 375.60874176 -357.65098190 2 2 -2 
74 2 1 -1.00000000 129.10000610 430.48234081 379.42321396 -357.50219345 2 2 -2 
75 2 1 -1.00000000 129.10000610 434.01260948 380.21931839 -356.63006973 2 2 -2 
76 2 2 1.00000000 128.19999695 436.20204353 382.00971603 -358.78969193 2 2 -2 
77 2 2 1.00000000 128.19999695 437.87145233 382.63877487 -362.18016052 2 2 -2 
78 2 2 1.00000000 128.19999695 441.99942589 381.90723419 -362.48077393 2 2 -2 
79 2 2 1.00000000 128.19999695 444.54934692 382.84811592 -364.89057922 2 2 -2 
80 2 2 1.00000000 128.19999695 446.82029724 385.69610596 -365.89610672 2 2 -2 
81 2 1 -1.00000000 129.10000610 449.32811737 385.89571953 -363.17563248 2 2 -2 
82 2 1 -1.00000000 129.10000610 448.07757568 384.46182823 -359.78824997 2 2 -2 
83 2 1 -1.00000000 129.10000610 451.01736832 384.23454285 -357.19535446 2 2 -2 
84 2 2 1.00000000 128.19999695 454.25197983 383.30851364 -355.73048782 2 2 -2 
85 2 2 1.00000000 128.19999695 456.82337952 386.16126060 -356.15798950 2 2 -2 
86 2 2 1.00000000 128.19999695 457.14417648 387.18488121 -352.66871643 2 2 -2 
87 2 1 -1.00000000 129.10000610 456.56405640 388.85633659 -349.38285828 2 2 -2 
88 2 2 1.00000000 128.19999695 455.51630783 391.28213692 -346.52767944 2 2 -2 
89 2 1 -1.00000000 129.10000610 458.94054031 392.88992310 -345.02293396 2 2 -2 
90 2 1 -1.00000000 129.10000610 461.43669891 390.06945419 -344.82530975 2 2 -2 
91 2 1 -1.00000000 129.10000610 461.50317001 386.29270744 -343.76486206 2 2 -2 
92 2 2 1.00000000 128.19999695 458.35739517 385.38967896 -342.35471344 2 2 -2 
93 2 1 -1.00000000 129.10000610 456.55919266 386.39457321 -339.27641296 2 2 -2 
94 2 2 1.00000000 128.19999695 455.96653366 387.94787407 -335.72280884 2 2 -2 
95 2 2 1.00000000 128.19999695 453.70874786 387.52399063 -332.63240051 2 2 -2 
96 2 2 1.00000000 128.19999695 452.78220749 386.36792564 -329.09631348 2 2 -2 
97 2 1 -1.00000000 129.10000610 450.54179382 383.00568771 -328.28246307 2 2 -2 
98 2 2 1.00000000 128.19999695 447.25460052 384.97098923 -328.48224640 2 2 -2 
99 2 1 -1.00000000 129.10000610 446.56632042 388.30747986 -327.25598907 2 2 -2 
100 2 2 1.00000000 128.19999695 444.08435249 390.89078331 -326.01167297 2 2 -2 
101 3 2 1.00000000 128.19999695 336.11747742 -71.72447968 84.56931305 2 0 0 
102 3 1 -1.00000000 129.10000610 334.24653625 -73.53667450 81.64867401 2 0 0 
103 3 2 1.00000000 128.19999695 332.37762451 -75.44812012 78.96135712 2 0 0 
104 3 2 1.00000000 128.19999695 328.91421509 -74.87622070 77.72377014 2 0 0 
105 3 2 1.00000000 128.19999695 328.55705261 -74.15321350 73.88913727 2 0 0 
106 3 1 -1.00000000 129.10000610 327.49279785 -74.71482849 70.13925171 2 0 0 
107 3 2 1.00000000 128.19999695 325.08818817 -71.78602600 68.85466003 2 0 0 
108 3 1 -1.00000000 129.10000610 323.43973541 -70.36023712 66.00683594 2 0 0 
109 3 1 -1.00000000 129.10000610 324.89288330 -69.92014313 62.54947281 2 0 0 
110 3 1 -1.00000000 129.10000610 322.27053833 -69.83307648 59.51214218 2 0 0 
111 3 2 1.00000000 128.19999695 320.57288361 -72.87631226 58.46986008 2 0 0 
112 3 1 -1.00000000 129.10000610 321.98161316 -75.74302673 60.75534439 2 0 0 
113 3 1 -1.00000000 129.10000610 319.56889343 -78.37200165 61.42202759 2 0 0 
114 3 1 -1.00000000 129.10000610 317.40537262 -79.81260681 58.82873154 2 0 0 
115 3 2 1.00000000 128.19999695 313.97267151 -80.29047394 56.81758118 2 0 0 
116 3 2 1.00000000 128.19999695 310.61190033 -80.53401947 57.56254196 1 0 0 
117 3 1 -1.00000000 129.10000610 309.53374481 -84.28933716 56.50814819 1 0 0 
118 3 1 -1.00000000 129.10000610 307.05126190 -85.39356995 59.11705399 1 0 0 
119 3 2 1.00000000 128.19999695 307.49340057 -86.34848022 62.63010788 1 0 0 
120 3 1 -1.00000000 129.10000610 309.39845276 -85.04530334 66.03621674 1 0 0 
121 3 1 -1.00000000 129.10000610 312.37840271 -83.15406036 65.71614838 2 0 0 
122 3 1 -1.00000000 129.10000610 313.84312439 -83.37583923 62.31725311 2 0 0 
123 3 2 1.00000000 128.19999695 315.10172272 -86.91445923 61.43760681 2 0 0 
124 3 1 -1.00000000 129.10000610 314.34938049 -90.47779846 62.78081894 2 0 0 
125 3 1 -1.00000000 129.10000610 317.77877045 -92.14658356 63.55357361 2 0 0 
126 3 2 1.00000000 128.19999695 319.31835175 -95.56033325 64.50588226 2 0 0 
127 3 2 1.00000000 128.19999695 321.95284271 -97.78523254 63.01494980 2 0 0 
128 3 2 1.00000000 128.19999695 324.76042175 -100.29638672 61.50948715 2 0 0 
129 3 2 1.00000000 128.19999695 324.69087219 -103.16912842 58.61107635 2 0 0 
130 3 2 1.00000000 128.19999695 322.83564758 -105.57173157 56.47644806 2 -1 0 
131 3 1 -1.00000000 129.10000610 320.74780273 -108.58235931 57.13399506 2 -1 0 
132 3 1 -1.00000000 129.10000610 317.28323364 -109.74442291 57.08074188 2 -1 0 
133 3 1 -1.00000000 129.10000610 314.04421234 -111.83597565 57.68418884 2 -1 0 
134 3 2 1.00000000 128.19999695 311.70099640 -109.30664062 59.02085114 2 -1 0 
135 3 2 1.00000000 128.19999695 308.87565613 -106.85436249 57.41206360 1 -1 0 
136 3 2 1.00000000 128.19999695 308.67160034 -102.91379547 57.15319061 1 0 0 
137 3 1 -1.00000000 129.10000610 310.01741791 -99.88217926 54.64384460 1 0 0 
138 3 2 1.00000000 128.19999695 308.12485504 -98.80939484 51.85535049 1 0 0 
139 3 1 -1.00000000 129.10000610 304.55867767 -97.13053894 51.92309189 1 0 0 
140 3 1 -1.00000000 129.10000610 301.55676270 -99.32601929 52.01856995 1 0 0 
141 3 1 -1.00000000 129.10000610 300.01967621 -102.52494049 50.35508347 1 0 0 
142 3 2 1.00000000 128.19999695 301.97914886 -105.70394135 48.95970154 1 -1 0 
143 3 1 -1.00000000 129.10000610 299.75902557 -108.90152740 49.87578964 1 -1 0 
144 3 2 1.00000000 128.19999695 300.26931763 -112.61613464 49.66838837 1 -1 0 
145 3 2 1.00000000 128.19999695 301.76737976 -114.87598419 47.14108276 1 -1 0 
146 3 2 1.00000000 128.19999695 299.63009644 -115.24693298 43.76173019 1 -1 0 
147 3 1 -1.00000000 129.10000610 301.30290985 -118.64850616 42.36172485 1 -1 0 
148 3 2 1.00000000 128.19999695 302.26049805 -122.33592987 43.08314133 1 -1 0 
149 3 1 -1.00000000 129.10000610 302.05952454 -123.38835907 46.80539322 1 -1 0 
150 3 2 1.00000000 128.19999695 305.02863312 -124.79067993 48.56281281 1 -1 0 
151 4 2 1.00000000 128.19999695 -319.86059570 379.60761261 66.98592377 -2 2 0 
152 4 1 -1.00000000 129.10000610 -322.73599243 376.83911514 66.04055786 -2 2 0 
153 4 2 1.00000000 128.19999695 -326.33520508 377.46102905 67.30725861 -2 2 0 
154 4 2 1.00000000 128.19999695 -328.72481537 379.82538223 65.92965698 -2 2 0 
155 4 2 1.00000000 128.19999695 -329.63623810 383.16823387 63.97176361 -2 2 0 
156 4 1 -1.00000000 129.10000610 -328.62278748 384.96710587 60.70067215 -2 2 0 
157 4 2 1.00000000 128.19999695 -331.27247620 388.00713158 60.67084885 -2 2 0 
158 4 1 -1.00000000 129.10000610 -331.89957428 391.82891083 60.79478073 -2 2 0 
159 4 1 -1.00000000 129.10000610 -332.62754059 392.76100349 57.12199402 -2 2 0 
160 4 1 -1.00000000 129.10000610 -334.49761963 392.67016220 53.59024429 -2 2 0 
161 4 2 1.00000000 128.19999695 -336.21260834 392.20666122 49.93634033 -2 2 0 
162 4 1 -1.00000000 129.10000610 -338.66135406 393.02209473 47.76058578 -2 2 0 
163 4 1 -1.00000000 129.10000610 -342.23368835 394.27681351 47.74594116 -2 2 0 
164 4 1 -1.00000000 129.10000610 -342.99206543 398.17708015 47.36358261 -2 2 0 
165 4 2 1.00000000 128.19999695 -345.28212738 398.84821510 44.50196075 -2 2 0 
166 4 2 1.00000000 128.19999695 -348.01338196 401.51641750 44.42378998 -2 2 0 
167 4 1 -1.00000000 129.10000610 -347.10817719 404.74741268 43.01278305 -2 2 0 
168 4 1 -1.00000000 129.10000610 -344.95944977 406.52885151 45.55151749 -2 2 0 
169 4 2 1.00000000 128.19999695 -341.76923370 407.99380970 43.73862076 -2 2 0 
170 4 1 -1.00000000 129.10000610 -342.24713135 411.75566936 42.65169907 -2 2 0 
171 4 1 -1.00000000 129.10000610 -342.60586548 414.10541314 45.81414032 -2 2 0 
172 4 1 -1.00000000 129.10000610 -346.03707123 413.45098293 47.73531342 -2 2 0 
173 4 2 1.00000000 128.19999695 -346.48361206 411.02100015 50.50040817 -2 2 0 
174 4 1 -1.00000000 129.10000610 -349.50061798 408.77950287 51.34369278 -2 2 0 
175 4 1 -1.00000000 129.10000610 -350.78040695 406.59798241 54.48424911 -2 2 0 
176 4 2 1.00000000 128.19999695 -352.76047897 403.33601856 55.27852249 -2 2 0 
177 4 2 1.00000000 128.19999695 -355.31808853 403.91336441 57.92907715 -2 2 0 
178 4 2 1.00000000 128.19999695 -357.40724182 406.62962914 59.79350662 -2 2 0 
179 4 2 1.00000000 128.19999695 -361.28780365 406.87207556 60.24826813 -2 2 0 
180 4 2 1.00000000 128.19999695 -364.71372604 406.66099358 58.45723724 -2 2 0 
181 4 1 -1.00000000 129.10000610 -367.44563675 404.41147804 59.56354523 -2 2 0 
182 4 1 -1.00000000 129.10000610 -370.31894684 403.90413284 61.88512421 -2 2 0 
183 4 1 -1.00000000 129.10000610 -373.48668671 404.72346592 63.87763214 -2 2 0 
184 4 2 1.00000000 128.19999695 -375.97954559 406.99862385 65.79655457 -2 2 0 
185 4 2 1.00000000 128.19999695 -378.07721710 408.68495750 63.00225449 -2 2 0 
186 4 2 1.00000000 128.19999695 -378.69790268 407.24231005 59.73992920 -2 2 0 
187 4 1 -1.00000000 129.10000610 -381.09737396 405.51762295 57.76838684 -2 2 0 
188 4 2 1.00000000 128.19999695 -382.93335152 402.57057667 59.47134781 -2 2 0 
189 4 1 -1.00000000 129.10000610 -385.86696053 400.33373451 59.73067474 -2 2 0 
190 4 1 -1.00000000 129.10000610 -386.28688240 398.12545204 62.48633575 -2 2 0 
191 4 1 -1.00000000 129.10000610 -389.06548500 395.39561272 62.91110229 -2 2 0 
192 4 2 1.00000000 128.19999695 -391.04349518 392.61324692 61.46618652 -2 2 0 
193 4 1 -1.00000000 129.10000610 -389.48879814 392.26626015 57.87375259 -2 2 0 
194 4 2 1.00000000 128.19999695 -386.02616310 390.91704178 57.81386185 -2 2 0 
195 4 2 1.00000000 128.19999695 -385.69728851 387.67730713 60.07164383 -2 2 0 
196 4 2 1.00000000 128.19999695 -383.74676323 385.82003212 63.07412338 -2 2 0 
197 4 1 -1.00000000 129.10000610 -380.33509064 383.90415764 63.55617523 -2 2 0 
198 4 2 1.00000000 128.19999695 -379.45441437 383.69043159 67.35384369 -2 2 0 
199 4 1 -1.00000000 129.10000610 -378.20710754 385.04183197 70.63510132 -2 2 0 
200 4 2 1.00000000 128.19999695 -378.47212219 388.71618271 72.65917206 -2 2 0 
201 5 2 1.00000000 128.19999695 -324.01155853 -313.11111450 -316.64114380 -2 -2 -2 
202 5 1 -1.00000000 129.10000610 -324.89843750 -309.94992828 -318.17393494 -2 -1 -2 
203 5 2 1.00000000 128.19999695 -327.47424316 -308.54496765 -320.70906830 -2 -1 -2 
204 5 2 1.00000000 128.19999695 -330.06879425 -309.36396790 -323.43357849 -2 -1 -2 
205 5 2 1.00000000 128.19999695 -331.13722229 -307.00194550 -326.42618561 -2 -1 -2 
206 5 1 -1.00000000 129.10000610 -332.43537140 -308.29357910 -329.61449432 -2 -1 -2 
207 5 2 1.00000000 128.19999695 -335.15421295 -309.21340179 -332.03745270 -2 -1 -2 
208 5 1 -1.00000000 129.10000610 -335.66712952 -311.36219025 -335.29135132 -2 -2 -2 
209 5 1 -1.00000000 129.10000610 -334.14057922 -315.12841797 -334.97588348 -2 -2 -2 
210 5 1 -1.00000000 129.10000610 -334.85948181 -317.84160614 -337.49980927 -2 -2 -2 
211 5 2 1.00000000 128.19999695 -332.69479370 -320.43157196 -339.11900330 -2 -2 -2 
212 5 1 -1.00000000 129.10000610 -329.70034027 -318.34572601 -339.73735046 -2 -2 -2 
213 5 1 -1.00000000 129.10000610 -326.51932526 -318.02119446 -337.83451843 -2 -2 -2 
214 5 1 -1.00000000 129.10000610 -326.73333740 -320.59664154 -335.10083008 -2 -2 -2 
215 5 2 1.00000000 128.19999695 -329.69712830 -320.74309540 -332.83744812 -2 -2 -2 
216 5 2 1.00000000 128.19999695 -329.27949524 -319.37247467 -329.28744507 -2 -2 -2 
217 5 1 -1.00000000 129.10000610 -331.72593689 -316.67073822 -327.53488922 -2 -2 -2 
218 5 1 -1.00000000 129.10000610 -332.60062408 -316.79505920 -324.09459686 -2 -2 -2 
219 5 2 1.00000000 128.19999695 -334.23688507 -315.69612885 -321.00079346 -2 -2 -2 
220 5 1 -1.00000000 129.10000610 -336.52770996 -316.62899017 -318.23210144 -2 -2 -2 
221 5 1 -1.00000000 129.10000610 -340.09240723 -317.00415802 -318.50895691 -2 -2 -2 
222 5 1 -1.00000000 129.10000610 -343.39704895 -315.77708435 -319.85024261 -2 -2 -2 
223 5 2 1.00000000 128.19999695 -343.97980499 -312.34230804 -318.10769653 -2 -2 -2 
224 5 1 -1.00000000 129.10000610 -343.06268311 -310.48050690 -314.53781891 -2 -1 -2 
225 5 1 -1.00000000 129.10000610 -343.60135651 -308.04948425 -311.29199982 -2 -1 -2 
226 5 2 1.00000000 128.19999695 -345.91435242 -310.10004425 -308.99680328 -2 -1 -1 
227 5 2 1.00000000 128.19999695 -348.83096313 -312.68124390 -308.75370789 -2 -2 -1 
228 5 2 1.00000000 128.19999695 -348.58167267 -316.44035339 -309.74331665 -2 -2 -1 
229 5 2 1.00000000 128.19999695 -350.85321045 -318.83603668 -311.75881958 -2 -2 -2 
230 5 2 1.00000000 128.19999695 -350.30967712 -322.64145660 -311.34202576 -2 -2 -2 
231 5 1 -1.00000000 129.10000610 -351.99133682 -323.33415985 -308.03524017 -2 -2 -1 
232 5 1 -1.00000000 129.10000610 -353.90431213 -325.44777679 -305.81336975 -2 -2 -1 
233 5 1 -1.00000000 129.10000610 -353.26791763 -329.42030334 -306.34082794 -2 -2 -1 
234 5 2 1.00000000 128.19999695 -350.93156052 -332.36194611 -305.58958435 -2 -2 -1 
235 5 2 1.00000000 128.19999695 -349.47572327 -336.09265900 -306.38012695 -2 -2 -1 
236 5 2 1.00000000 128.19999695 -348.80277252 -337.92481995 -302.85098267 -2 -2 -1 
237 5 1 -1.00000000 129.10000610 -347.43737030 -339.75756836 -299.59390259 -2 -2 -1 
238 5 2 1.00000000 128.19999695 -346.32795715 -339.17701721 -295.86138153 -2 -2 -1 
239 5 1 -1.00000000 129.10000610 -346.45835876 -339.60956573 -292.23670959 -2 -2 -1 
240 5 1 -1.00000000 129.10000610 -344.35295868 -340.14311218 -289.04302216 -2 -2 -1 
241 5 1 -1.00000000 129.10000610 -343.79763031 -336.43537140 -288.09511566 -2 -2 -1 
242 5 2 1.00000000 128.19999695 -345.49704742 -333.69514465 -290.32707977 -2 -2 -1 
243 5 1 -1.00000000 129.10000610 -348.82479858 -332.88445282 -291.55989075 -2 -2 -1 
244 5 2 1.00000000 128.19999695 -351.75259781 -334.13758087 -292.11978912 -2 -2 -1 
245 5 2 1.00000000 128.19999695 -353.63336563 -332.97179413 -295.53042603 -2 -2 -1 
246 5 2 1.00000000 128.19999695 -352.94777679 -331.03171539 -298.39855194 -2 -2 -1 
247 5 1 -1.00000000 129.10000610 -349.23213959 -331.52815247 -299.90502930 -2 -2 -1 
248 5 2 1.00000000 128.19999695 -346.43455505 -330.47530365 -298.30011749 -2 -2 -1 
249 5 1 -1.00000000 129.10000610 -345.08792877 -327.25257874 -299.91802979 -2 -2 -1 
250 5 2 1.00000000 128.19999695 -345.31249237 -326.88901520 -303.58188629 -2 -2 -1 
251 6 2 1.00000000 128.19999695 456.85736465 -413.68141246 -128.05661011 2 -2 -1 
252 6 1 -1.00000000 129.10000610 455.92716980 -410.08697557 -128.34397888 2 -2 -1 
253 6 2 1.00000000 128.19999695 454.83198547 -406.99237108 -130.04920959 2 -2 -1 
254 6 2 1.00000000 128.19999695 451.16316986 -405.96853256 -130.52445221 2 -2 -1 
255 6 2 1.00000000 128.19999695 448.65090179 -403.97078514 -132.79660797 2 -2 -1 
256 6 1 -1.00000000 129.10000610 447.65405273 -399.99875736 -131.77805328 2 -2 -1 
257 6 2 1.00000000 128.19999695 446.76620483 -396.31371117 -130.83216095 2 -2 -1 
258 6 1 -1.00000000 129.10000610 443.15471649 -396.02030182 -129.37185669 2 -2 -1 
259 6 1 -1.00000000 129.10000610 443.09990692 -392.17253113 -130.15781403 2 -2 -1 
260 6 1 -1.00000000 129.10000610 443.64738464 -389.29833794 -127.64662933 2 -2 -1 
261 6 2 1.00000000 128.19999695 440.75816727 -386.37754822 -126.93465424 2 -2 -1 
262 6 1 -1.00000000 129.10000610 441.74962234 -385.71004295 -123.28913879 2 -2 -1 
263 6 1 -1.00000000 129.10000610 442.07292366 -382.24170303 -122.19634247 2 -2 -1 
264 6 1 -1.00000000 129.10000610 440.15198708 -379.13039017 -121.44749451 2 -2 -1 
265 6 2 1.00000000 128.19999695 440.09963799 -378.97872162 -117.24881744 2 -2 -1 
266 6 2 1.00000000 128.19999695 443.52899551 -377.71226883 -115.92566681 2 -2 -1 
267 6 1 -1.00000000 129.10000610 444.64700127 -376.93756866 -112.31306458 2 -2 -1 
268 6 1 -1.00000000 129.10000610 443.74744415 -376.82163620 -108.44660187 2 -2 -1 
269 6 2 1.00000000 128.19999695 442.71887207 -376.17992020 -104.88275146 2 -2 -1 
270 6 1 -1.00000000 129.10000610 442.12353516 -376.87787247 -101.39677429 2 -2 0 
271 6 1 -1.00000000 129.10000610 438.20013046 -377.54655075 -100.84054565 2 -2 0 
272 6 1 -1.00000000 129.10000610 434.39038086 -378.50156021 -99.40269470 2 -2 0 
273 6 2 1.00000000 128.19999695 431.34685898 -379.35850143 -100.64505768 2 -2 0 
274 6 1 -1.00000000 129.10000610 428.71728230 -380.65253830 -98.20005798 2 -2 0 
275 6 1 -1.00000000 129.10000610 426.06096268 -381.82706451 -95.99817657 2 -2 0 
276 6 2 1.00000000 128.19999695 422.18617868 -381.67676163 -96.33683014 2 -2 0 
277 6 2 1.00000000 128.19999695 419.61217976 -384.55775642 -96.89612579 2 -2 0 
278 6 2 1.00000000 128.19999695 418.32203197 -387.58620644 -98.98115540 2 -2 0 
279 6 2 1.00000000 128.19999695 415.49726135 -389.59976578 -99.95056152 2 -2 0 
280 6 2 1.00000000 128.19999695 411.40944171 -390.43783760 -100.80815125 2 -2 0 
281 6 1 -1.00000000 129.10000610 408.60986471 -388.67002487 -99.19644165 2 -2 0 
282 6 1 -1.00000000 129.10000610 406.63539696 -389.22871208 -95.81113434 2 -2 0 
283 6 1 -1.00000000 129.10000610 408.62566090 -387.22598076 -93.54194641 2 -2 0 
284 6 2 1.00000000 128.19999695 410.49480295 -384.42814255 -91.60577393 2 -2 0 
285 6 2 1.00000000 128.19999695 408.78067875 -381.33481598 -91.34900665 2 -2 0 
286 6 2 1.00000000 128.19999695 410.39054108 -378.13052368 -89.68553925 2 -2 0 
287 6 1 -1.00000000 129.10000610 411.56922746 -375.12329865 -91.40457153 2 -2 0 
288 6 2 1.00000000 128.19999695 413.90319914 -373.68001556 -93.81391144 2 -2 0 
289 6 1 -1.00000000 129.10000610 415.01423264 -375.91165543 -96.60330200 2 -2 0 
290 6 1 -1.00000000 129.10000610 417.46687770 -374.99931717 -98.99234772 2 -2 0 
291 6 1 -1.00000000 129.10000610 420.93501282 -373.87921143 -97.71929169 2 -2 0 
292 6 2 1.00000000 128.19999695 424.34394073 -372.30334091 -97.99709320 2 -2 0 
293 6 1 -1.00000000 129.10000610 428.34922314 -373.51642227 -98.10675812 2 -2 0 
294 6 2 1.00000000 128.19999695 431.25009727 -371.30713654 -98.92356110 2 -2 0 
295 6 2 1.00000000 128.19999695 434.90549469 -371.47283936 -99.14660645 2 -2 0 
296 6 2 1.00000000 128.19999695 437.17373085 -369.32292938 -100.91119385 2 -2 0 
297 6 1 -1.00000000 129.10000610 438.68857384 -369.62182617 -104.25252533 2 -2 -1 
298 6 2 1.00000000 128.19999695 437.33130455 -367.74011230 -107.16000366 2 -2 -1 
299 6 1 -1.00000000 129.10000610 433.82492065 -366.16451263 -107.70712280 2 -2 -1 
300 6 2 1.00000000 128.19999695 430.41555500 -365.53124619 -105.98510742 2 -2 -1 
301 7 2 1.00000000 128.19999695 -88.64587402 -33.22081757 -899.25650787 0 0 -4 
302 7 1 -1.00000000 129.10000610 -88.09588623 -33.48871994 -895.44335938 0 0 -4 
303 7 2 1.00000000 128.19999695 -90.32478333 -36.13922501 -893.51632690 0 0 -4 
304 7 2 1.00000000 128.19999695 -89.29759979 -38.40452957 -890.70224380 0 0 -4 
305 7 2 1.00000000 128.19999695 -88.65504456 -41.80342865 -888.70206833 0 0 -4 
306 7 1 -1.00000000 129.10000610 -86.96132660 -44.44546509 -886.78787994 0 0 -4 
307 7 2 1.00000000 128.19999695 -83.41403961 -45.03820038 -886.00022888 0 0 -4 
308 7 1 -1.00000000 129.10000610 -82.65137482 -41.12277603 -886.13344193 0 0 -4 
309 7 1 -1.00000000 129.10000610 -82.06140900 -39.25234604 -889.20853424 0 0 -4 
310 7 1 -1.00000000 129.10000610 -83.55364990 -41.46469879 -891.78251266 0 0 -4 
311 7 2 1.00000000 128.19999695 -84.20697784 -40.02956009 -895.23668671 0 0 -4 
312 7 1 -1.00000000 129.10000610 -82.34086609 -36.66762543 -894.00436401 0 0 -4 
313 7 1 -1.00000000 129.10000610 -78.48724365 -35.71469116 -894.29211426 0 0 -4 
314 7 1 -1.00000000 129.10000610 -76.04072571 -33.83752823 -891.81298065 0 0 -4 
315 7 2 1.00000000 128.19999695 -76.29901886 -35.78960037 -888.57485199 0 0 -4 
316 7 2 1.00000000 128.19999695 -78.94477844 -34.98027420 -885.55992889 0 0 -4 
317 7 1 -1.00000000 129.10000610 -77.78522491 -35.91970444 -882.21096802 0 0 -4 
318 7 1 -1.00000000 129.10000610 -78.11011505 -34.44368362 -878.90816498 0 0 -4 
319 7 2 1.00000000 128.19999695 -80.37950134 -31.60252190 -877.46953964 0 0 -4 
320 7 1 -1.00000000 129.10000610 -80.60833740 -27.83256149 -876.57710648 0 0 -4 
321 7 1 -1.00000000 129.10000610 -76.84526825 -27.14090729 -877.50998688 0 0 -4 
322 7 1 -1.00000000 129.10000610 -76.10022736 -23.46519279 -876.26455307 0 0 -4 
323 7 2 1.00000000 128.19999695 -78.14460754 -21.96101952 -873.79948425 0 0 -4 
324 7 1 -1.00000000 129.10000610 -79.00284576 -18.20550537 -874.89489365 0 0 -4 
325 7 1 -1.00000000 129.10000610 -80.78086853 -15.06867981 -874.55445862 0 0 -4 
326 7 2 1.00000000 128.19999695 -83.89716339 -13.76914120 -873.55372238 0 0 -4 
327 7 2 1.00000000 128.19999695 -86.22265625 -12.33356667 -876.34978485 0 0 -4 
328 7 2 1.00000000 128.19999695 -89.24266815 -14.67963600 -875.69404221 0 0 -4 
329 7 2 1.00000000 128.19999695 -91.65200043 -17.86278343 -875.00755310 0 0 -4 
330 7 2 1.00000000 128.19999695 -89.27004242 -21.00794792 -874.99359894 0 0 -4 
331 7 1 -1.00000000 129.10000610 -85.81149292 -21.66828918 -873.66055298 0 0 -4 
332 7 1 -1.00000000 129.10000610 -85.24955750 -21.75352287 -869.78294373 0 0 -4 
333 7 1 -1.00000000 129.10000610 -85.33660889 -21.14994240 -865.95328522 0 0 -4 
334 7 2 1.00000000 128.19999695 -87.24963379 -18.19442749 -863.98474503 0 0 -4 
335 7 2 1.00000000 128.19999695 -85.56961823 -15.30036449 -862.51853561 0 0 -4 
336 7 2 1.00000000 128.19999695 -85.02970123 -12.13855553 -860.53458023 0 0 -4 
337 7 1 -1.00000000 129.10000610 -87.24284363 -9.82678032 -862.29096603 0 0 -4 
338 7 2 1.00000000 128.19999695 -90.80539703 -9.78336334 -860.68224335 0 0 -4 
339 7 1 -1.00000000 129.10000610 -92.87053680 -6.75767994 -860.93825912 0 0 -4 
340 7 1 -1.00000000 129.10000610 -95.44418335 -3.91752481 -860.82771301 0 0 -4 
341 7 1 -1.00000000 129.10000610 -96.35363770 -0.32817832 -861.60470200 0 0 -4 
342 7 2 1.00000000 128.19999695 -94.88529968 2.82412267 -863.66182709 0 0 -4 
343 7 1 -1.00000000 129.10000610 -92.06741333 5.37877178 -864.94212723 0 0 -4 
344 7 2 1.00000000 128.19999695 -88.49829865 3.66213512 -864.71678162 0 0 -4 
345 7 2 1.00000000 128.19999695 -85.38684082 1.79128802 -864.45209503 0 0 -4 
346 7 2 1.00000000 128.19999695 -82.62531281 0.48761171 -866.63063812 0 0 -4 
347 7 1 -1.00000000 129.10000610 -82.34203339 0.88730925 -870.17046738 0 0 -4 
348 7 2 1.00000000 128.19999695 -78.48596954 1.11424959 -871.07872391 0 0 -4 
349 7 1 -1.00000000 129.10000610 -77.11621857 -1.49719822 -873.74850845 0 0 -4 
350 7 2 1.00000000 128.19999695 -74.51515198 -0.74558985 -876.19088745 0 0 -4 
351 8 2 1.00000000 128.19999695 -25.85801697 -67.75674438 636.69521713 0 0 3 
352 8 1 -1.00000000 129.10000610 -29.12579155 -67.20713043 635.00344753 0 0 3 
353 8 2 1.00000000 128.19999695 -31.09599495 -64.07386780 635.97291660 0 0 3 
354 8 2 1.00000000 128.19999695 -31.00936890 -60.50946045 636.69111919 0 0 3 
355 8 2 1.00000000 128.19999695 -29.18927956 -58.23459625 639.10279655 0 0 3 
356 8 1 -1.00000000 129.10000610 -29.34462738 -58.52632904 642.98749924 0 0 3 
357 8 2 1.00000000 128.19999695 -30.39946747 -61.86874771 644.55896378 0 0 3 
358 8 1 -1.00000000 129.10000610 -28.46574020 -64.57793427 642.31352425 0 0 3 
359 8 1 -1.00000000 129.10000610 -24.56404495 -64.22589874 642.17307472 0 0 3 
360 8 1 -1.00000000 129.10000610 -21.20382118 -62.78922272 641.05351448 0 0 3 
361 8 2 1.00000000 128.19999695 -20.83336449 -58.83540726 641.17124939 0 0 3 
362 8 1 -1.00000000 129.10000610 -18.50939560 -59.12503433 638.12498093 0 0 3 
363 8 1 -1.00000000 129.10000610 -15.29887581 -60.71320343 636.21893978 0 0 3 
364 8 1 -1.00000000 129.10000610 -12.48317432 -62.69079590 637.54748058 0 0 3 
365 8 2 1.00000000 128.19999695 -10.55117416 -65.50311279 638.21086693 0 0 3 
366 8 2 1.00000000 128.19999695 -7.29955482 -66.30497742 636.44031906 0 0 3 
367 8 1 -1.00000000 129.10000610 -6.46760273 -66.93467712 632.93821335 0 0 3 
368 8 1 -1.00000000 129.10000610 -2.83495355 -67.61879730 631.38609219 0 0 3 
369 8 2 1.00000000 128.19999695 -0.45757112 -68.36692810 628.74259520 0 0 3 
370 8 1 -1.00000000 129.10000610 1.85229349 -67.16751862 625.72291040 0 0 3 