ITEM: TIMESTEP
41350000 
ITEM: NUMBER OF ATOMS 
25000 
ITEM: BOX BOUNDS pp pp pp 
-103.678017 103.678017 
-103.678017 103.678017 
-103.678017 103.678017 
ITEM: ATOMS id mol type q mass xu yu zu ix iy iz 
1 1 2 1.00000000 128.19999695 426.26937008 39.61666107 -215.13163185 2 0 -1 
2 1 1 -1.00000000 129.10000610 429.12073040 39.81236267 -217.76674175 2 0 -1 
3 1 2 1.00000000 128.19999695 429.71055984 37.20075989 -220.40017319 2 0 -1 
4 1 2 1.00000000 128.19999695 429.88020515 35.88484955 -223.70996094 2 0 -1 
5 1 2 1.00000000 128.19999695 430.68771935 32.90810013 -226.30996513 2 0 -1 
6 1 1 -1.00000000 129.10000610 431.84193802 32.22924042 -229.79659653 2 0 -1 
7 1 2 1.00000000 128.19999695 432.91226387 32.19944000 -233.24449921 2 0 -1 
8 1 1 -1.00000000 129.10000610 434.18977165 34.40250015 -235.93088531 2 0 -1 
9 1 1 -1.00000000 129.10000610 435.50052834 35.75622559 -238.95527840 2 0 -1 
10 1 1 -1.00000000 129.10000610 437.47798729 34.15893936 -241.74495697 2 0 -1 
11 1 2 1.00000000 128.19999695 436.69922447 33.19267654 -245.27302933 2 0 -1 
12 1 1 -1.00000000 129.10000610 435.31138802 34.38683319 -248.62536240 2 0 -1 
13 1 1 -1.00000000 129.10000610 431.75954056 34.00805283 -249.56581879 2 0 -1 
14 1 1 -1.00000000 129.10000610 428.33824730 35.31241989 -249.40342712 2 0 -1 
15 1 2 1.00000000 128.19999695 427.02628231 36.28865433 -253.03396988 2 0 -1 
16 1 2 1.00000000 128.19999695 424.48023796 34.76314926 -254.81536102 2 0 -1 
17 1 1 -1.00000000 129.10000610 424.92228031 31.54452515 -257.06496811 2 0 -1 
18 1 1 -1.00000000 129.10000610 426.50607109 29.40724945 -259.63703918 2 0 -1 
19 1 2 1.00000000 128.19999695 429.87918282 29.92515182 -261.72855377 2 0 -1 
20 1 1 -1.00000000 129.10000610 429.42405415 31.67474174 -264.92709732 2 0 -1 
21 1 1 -1.00000000 129.10000610 429.51765156 31.77834702 -268.73251724 2 0 -1 
22 1 1 -1.00000000 129.10000610 428.12507915 30.43579292 -271.91714478 2 0 -1 
23 1 2 1.00000000 128.19999695 429.38790321 31.59843826 -275.05840302 2 0 -1 
24 1 1 -1.00000000 129.10000610 430.59128761 30.20250511 -278.22630310 2 0 -1 
25 1 1 -1.00000000 129.10000610 429.35523224 32.56977844 -280.95356750 2 0 -1 
26 1 2 1.00000000 128.19999695 429.64972973 31.19762230 -284.54704285 2 0 -1 
27 1 2 1.00000000 128.19999695 430.95347977 32.36140060 -287.68532562 2 0 -1 
28 1 2 1.00000000 128.19999695 430.29606915 32.32532120 -291.74615479 2 0 -1 
29 1 2 1.00000000 128.19999695 429.55450058 31.44585800 -295.37960815 2 0 -1 
30 1 2 1.00000000 128.19999695 426.96858788 29.90854645 -297.71591187 2 0 -1 
31 1 1 -1.00000000 129.10000610 426.98865223 31.15760612 -301.33003235 2 0 -1 
32 1 1 -1.00000000 129.10000610 429.49304771 33.93535995 -302.40898895 2 0 -1 
33 1 1 -1.00000000 129.10000610 428.78730011 36.69891739 -299.75422668 2 0 -1 
34 1 2 1.00000000 128.19999695 424.85894012 37.29178238 -299.95239258 2 0 -1 
35 1 2 1.00000000 128.19999695 422.41812706 40.74354172 -299.50444031 2 0 -1 
36 1 2 1.00000000 128.19999695 420.60897398 44.18956757 -298.82904816 2 0 -1 
37 1 1 -1.00000000 129.10000610 421.31610298 48.07205963 -297.74112701 2 0 -1 
38 1 2 1.00000000 128.19999695 423.78351021 48.08586121 -295.13986206 2 0 -1 
39 1 1 -1.00000000 129.10000610 427.27633953 47.61823654 -293.71472168 2 0 -1 
40 1 1 -1.00000000 129.10000610 430.30545616 46.91590118 -296.07376862 2 0 -1 
41 1 1 -1.00000000 129.10000610 429.73604298 44.88090897 -298.70804596 2 0 -1 
42 1 2 1.00000000 128.19999695 429.89467716 43.94767761 -302.16197205 2 0 -1 
43 1 1 -1.00000000 129.10000610 428.86603069 45.84877777 -305.09497070 2 0 -1 
44 1 2 1.00000000 128.19999695 428.02909470 47.98466110 -308.15192413 2 0 -1 
45 1 2 1.00000000 128.19999695 425.44432640 48.40657806 -311.25531769 2 0 -2 
46 1 2 1.00000000 128.19999695 425.95839500 51.39860535 -313.42237854 2 0 -2 
47 1 1 -1.00000000 129.10000610 425.01818943 53.22098923 -316.48036194 2 0 -2 
48 1 2 1.00000000 128.19999695 425.15306187 54.08843994 -320.17278290 2 0 -2 
49 1 1 -1.00000000 129.10000610 422.95701981 53.96791458 -323.20765686 2 0 -2 
50 1 2 1.00000000 128.19999695 420.45771170 55.79655457 -325.10841370 2 0 -2 
51 2 2 1.00000000 128.19999695 440.62691307 335.73998260 -234.03854561 2 2 -1 
52 2 1 -1.00000000 129.10000610 441.93331718 335.23867035 -230.63547707 2 2 -1 
53 2 2 1.00000000 128.19999695 440.94328880 334.22636414 -226.87043762 2 2 -1 
54 2 2 1.00000000 128.19999695 439.79850769 330.87551117 -226.16662025 2 2 -1 
55 2 2 1.00000000 128.19999695 440.83593750 327.22566223 -227.25227547 2 2 -1 
56 2 1 -1.00000000 129.10000610 442.67825317 325.47189331 -224.17829132 2 2 -1 
57 2 2 1.00000000 128.19999695 441.75194740 322.18863678 -221.88668346 2 2 -1 
58 2 1 -1.00000000 129.10000610 438.04703331 321.87288666 -222.15714169 2 2 -1 
59 2 1 -1.00000000 129.10000610 435.56126404 323.48882294 -219.44432068 2 2 -1 
60 2 1 -1.00000000 129.10000610 431.95614433 322.19280243 -219.76643467 2 2 -1 
61 2 2 1.00000000 128.19999695 431.05666161 322.77618408 -223.30370617 2 2 -1 
62 2 1 -1.00000000 129.10000610 431.85695457 326.84585571 -223.96039200 2 2 -1 
63 2 1 -1.00000000 129.10000610 433.59403419 329.49270630 -225.77799416 2 2 -1 
64 2 1 -1.00000000 129.10000610 431.60522270 331.90358734 -228.11613655 2 2 -1 
65 2 2 1.00000000 128.19999695 431.27484131 335.51023865 -228.90370178 2 2 -1 
66 2 2 1.00000000 128.19999695 430.49824619 338.60799408 -226.80297852 2 2 -1 
67 2 1 -1.00000000 129.10000610 428.67289066 341.19507599 -228.88693047 2 2 -1 
68 2 1 -1.00000000 129.10000610 426.85969257 342.39024353 -232.14449501 2 2 -1 
69 2 2 1.00000000 128.19999695 430.35624886 343.54843903 -233.63984489 2 2 -1 
70 2 1 -1.00000000 129.10000610 432.79952812 346.18212891 -235.07868195 2 2 -1 
71 2 1 -1.00000000 129.10000610 434.39799118 347.55303192 -231.75869179 2 2 -1 
72 2 1 -1.00000000 129.10000610 436.66796112 350.65959167 -232.95066833 2 2 -1 
73 2 2 1.00000000 128.19999695 437.74708748 354.17042923 -233.08415413 2 2 -1 
74 2 1 -1.00000000 129.10000610 435.36351776 355.84507370 -235.92621803 2 2 -1 
75 2 1 -1.00000000 129.10000610 431.97123528 354.30943680 -235.37330055 2 2 -1 
76 2 2 1.00000000 128.19999695 428.67595482 353.20168686 -236.30178642 2 2 -1 
77 2 2 1.00000000 128.19999695 427.63159657 350.83258057 -233.71028137 2 2 -1 
78 2 2 1.00000000 128.19999695 425.04005241 348.27182007 -233.42597008 2 2 -1 
79 2 2 1.00000000 128.19999695 421.94728184 347.68922424 -235.41263199 2 2 -1 
80 2 2 1.00000000 128.19999695 421.13185024 348.64045715 -239.05481148 2 2 -1 
81 2 1 -1.00000000 129.10000610 421.56593513 348.69461060 -242.79800034 2 2 -1 
82 2 1 -1.00000000 129.10000610 420.98122120 346.70475769 -246.16343307 2 2 -1 
83 2 1 -1.00000000 129.10000610 422.29820585 343.29157257 -246.98897552 2 2 -1 
84 2 2 1.00000000 128.19999695 425.22528744 344.39982605 -249.34184265 2 2 -1 
85 2 2 1.00000000 128.19999695 428.47090626 344.05348969 -246.96337128 2 2 -1 
86 2 2 1.00000000 128.19999695 431.22092628 341.63292694 -248.32236481 2 2 -1 
87 2 1 -1.00000000 129.10000610 434.45506287 339.60565186 -248.20080566 2 2 -1 
88 2 2 1.00000000 128.19999695 437.81877518 340.27458191 -249.71731567 2 2 -1 
89 2 1 -1.00000000 129.10000610 437.85832977 343.79807281 -251.16235352 2 2 -1 
90 2 1 -1.00000000 129.10000610 436.05677986 347.03436279 -252.01205826 2 2 -1 
91 2 1 -1.00000000 129.10000610 437.41508484 349.96084595 -254.16820908 2 2 -1 
92 2 2 1.00000000 128.19999695 438.04679871 348.77792358 -258.05839539 2 2 -1 
93 2 1 -1.00000000 129.10000610 436.14958954 345.21871185 -258.32181168 2 2 -1 
94 2 2 1.00000000 128.19999695 434.97043610 341.89994049 -259.31481934 2 2 -1 
95 2 2 1.00000000 128.19999695 434.92584991 339.65451050 -262.28118134 2 2 -1 
96 2 2 1.00000000 128.19999695 436.57155418 339.64780426 -265.50994110 2 2 -1 
97 2 1 -1.00000000 129.10000610 439.14797974 341.93495941 -267.45892334 2 2 -1 
98 2 2 1.00000000 128.19999695 440.34954071 340.91075134 -270.61385727 2 2 -1 
99 2 1 -1.00000000 129.10000610 442.15947533 341.10754395 -273.91040039 2 2 -1 
100 2 2 1.00000000 128.19999695 443.35088158 344.96682739 -273.75716400 2 2 -1 
101 3 2 1.00000000 128.19999695 331.46199036 -127.05966187 85.21745300 2 -1 0 
102 3 1 -1.00000000 129.10000610 332.70852661 -123.96013641 87.12367249 2 -1 0 
103 3 2 1.00000000 128.19999695 333.64408875 -120.16177368 87.58461761 2 -1 0 
104 3 2 1.00000000 128.19999695 336.70877838 -118.38115692 89.47322845 2 -1 0 
105 3 2 1.00000000 128.19999695 335.75740051 -114.57287598 89.23076630 2 -1 0 
106 3 1 -1.00000000 129.10000610 335.96038055 -111.32690430 91.23461914 2 -1 0 
107 3 2 1.00000000 128.19999695 334.21263123 -107.98553467 89.68668365 2 -1 0 
108 3 1 -1.00000000 129.10000610 331.43568420 -106.11138916 87.56523895 2 -1 0 
109 3 1 -1.00000000 129.10000610 331.65085602 -102.92222595 85.68199158 2 0 0 
110 3 1 -1.00000000 129.10000610 335.07498169 -103.29833984 84.28678131 2 0 0 
111 3 2 1.00000000 128.19999695 338.22670746 -101.29345703 83.57402039 2 0 0 
112 3 1 -1.00000000 129.10000610 339.12915039 -97.51174927 83.44954681 2 0 0 
113 3 1 -1.00000000 129.10000610 338.87764740 -96.85066986 79.61741638 2 0 0 
114 3 1 -1.00000000 129.10000610 341.86011505 -96.97431946 78.09394836 2 0 0 
115 3 2 1.00000000 128.19999695 345.22111511 -97.87537384 79.55702972 2 0 0 
116 3 2 1.00000000 128.19999695 345.50651550 -99.74395752 83.05625153 2 0 0 
117 3 1 -1.00000000 129.10000610 345.67768860 -97.75659180 86.25789642 2 0 0 
118 3 1 -1.00000000 129.10000610 345.52498627 -93.91421509 85.94056702 2 0 0 
119 3 2 1.00000000 128.19999695 345.96351624 -92.11334229 82.73178864 2 0 0 
120 3 1 -1.00000000 129.10000610 344.87913513 -89.56072998 80.12709045 2 0 0 
121 3 1 -1.00000000 129.10000610 347.08994293 -86.55673218 78.81143188 2 0 0 
122 3 1 -1.00000000 129.10000610 348.00781250 -83.07985687 80.36222839 2 0 0 
123 3 2 1.00000000 128.19999695 351.27791595 -80.68140411 80.32682800 2 0 0 
124 3 1 -1.00000000 129.10000610 351.02244568 -78.45045471 77.02257538 2 0 0 
125 3 1 -1.00000000 129.10000610 351.73879242 -80.47705078 74.07089233 2 0 0 
126 3 2 1.00000000 128.19999695 348.91302490 -80.13758850 71.25544739 2 0 0 
127 3 2 1.00000000 128.19999695 346.12435913 -83.10869598 70.29879761 2 0 0 
128 3 2 1.00000000 128.19999695 345.32851410 -86.59300232 69.01288605 2 0 0 
129 3 2 1.00000000 128.19999695 348.48220062 -88.25991821 69.17531586 2 0 0 
130 3 2 1.00000000 128.19999695 349.69313049 -92.04141235 69.41712952 2 0 0 
131 3 1 -1.00000000 129.10000610 347.87538147 -95.31193542 70.30205536 2 0 0 
132 3 1 -1.00000000 129.10000610 344.22210693 -94.49233246 68.51625824 2 0 0 
133 3 1 -1.00000000 129.10000610 344.41368103 -91.91103363 65.40687561 2 0 0 
134 3 2 1.00000000 128.19999695 344.94200134 -91.88433838 61.77909088 2 0 0 
135 3 2 1.00000000 128.19999695 345.38911438 -88.90432739 59.57075882 2 0 0 
136 3 2 1.00000000 128.19999695 342.10430145 -86.82429504 58.25801468 2 0 0 
137 3 1 -1.00000000 129.10000610 339.08377838 -84.64111328 59.10829163 2 0 0 
138 3 2 1.00000000 128.19999695 339.23550415 -80.83119965 59.02944565 2 0 0 
139 3 1 -1.00000000 129.10000610 337.90529633 -78.12265015 56.61007690 2 0 0 
140 3 1 -1.00000000 129.10000610 334.92385101 -76.23265839 54.55443192 2 0 0 
141 3 1 -1.00000000 129.10000610 334.52295685 -74.24053955 51.09009933 2 0 0 
142 3 2 1.00000000 128.19999695 334.84701538 -72.43645477 47.38594055 2 0 0 
143 3 1 -1.00000000 129.10000610 333.28401947 -73.65519714 44.12013626 2 0 0 
144 3 2 1.00000000 128.19999695 334.02394104 -75.04003143 40.64101791 2 0 0 
145 3 2 1.00000000 128.19999695 330.80158234 -77.59806061 40.20272446 2 0 0 
146 3 2 1.00000000 128.19999695 327.15827942 -77.59490204 38.97539520 2 0 0 
147 3 1 -1.00000000 129.10000610 323.80387878 -77.52132416 37.52366257 2 0 0 
148 3 2 1.00000000 128.19999695 321.06793213 -75.13879395 38.41446304 2 0 0 
149 3 1 -1.00000000 129.10000610 318.82701874 -72.18738556 38.89603043 2 0 0 
150 3 2 1.00000000 128.19999695 318.66519928 -69.28382874 41.60978699 2 0 0 
151 4 2 1.00000000 128.19999695 -243.61806107 313.42725372 18.17628479 -1 2 0 
152 4 1 -1.00000000 129.10000610 -241.48575974 314.87946320 20.75803185 -1 2 0 
153 4 2 1.00000000 128.19999695 -240.50203323 314.21931458 24.32513046 -1 2 0 
154 4 2 1.00000000 128.19999695 -239.67520905 315.74722290 27.54098701 -1 2 0 
155 4 2 1.00000000 128.19999695 -237.29291534 316.02495575 30.44475174 -1 2 0 
156 4 1 -1.00000000 129.10000610 -233.73215866 317.33301544 30.08118439 -1 2 0 
157 4 2 1.00000000 128.19999695 -232.38647842 319.79106140 32.64585876 -1 2 0 
158 4 1 -1.00000000 129.10000610 -230.30698013 322.75512695 33.28882980 -1 2 0 
159 4 1 -1.00000000 129.10000610 -231.72319412 325.36547852 30.96145058 -1 2 0 
160 4 1 -1.00000000 129.10000610 -234.95376015 327.02498627 29.23492432 -1 2 0 
161 4 2 1.00000000 128.19999695 -238.18915367 328.82508087 28.29099655 -1 2 0 
162 4 1 -1.00000000 129.10000610 -241.99779510 329.86550140 29.08551216 -1 2 0 
163 4 1 -1.00000000 129.10000610 -245.64257812 329.56410980 31.02249908 -1 2 0 
164 4 1 -1.00000000 129.10000610 -247.53690338 327.10570526 32.94316101 -1 2 0 
165 4 2 1.00000000 128.19999695 -248.66012573 324.36276245 30.25963402 -1 2 0 
166 4 2 1.00000000 128.19999695 -247.69482422 322.71788025 27.18575096 -1 2 0 
167 4 1 -1.00000000 129.10000610 -245.97579575 320.28096771 24.55633545 -1 2 0 
168 4 1 -1.00000000 129.10000610 -246.30459595 317.09643555 26.37494278 -1 2 0 
169 4 2 1.00000000 128.19999695 -247.14914703 314.01246643 27.94129181 -1 2 0 
170 4 1 -1.00000000 129.10000610 -247.04513168 312.92666626 31.68722153 -1 2 0 
171 4 1 -1.00000000 129.10000610 -244.97020721 310.54116058 33.17724991 -1 1 0 
172 4 1 -1.00000000 129.10000610 -245.10139847 308.84500122 36.86000061 -1 1 0 
173 4 2 1.00000000 128.19999695 -248.19018936 306.92260742 38.55345154 -1 1 0 
174 4 1 -1.00000000 129.10000610 -251.99984360 306.71224976 38.42377472 -1 1 0 
175 4 1 -1.00000000 129.10000610 -255.84165573 306.56830597 38.75709534 -1 1 0 
176 4 2 1.00000000 128.19999695 -259.48498917 306.19583130 37.32772827 -1 1 0 
177 4 2 1.00000000 128.19999695 -261.95595169 309.49251556 37.70925140 -1 1 0 
178 4 2 1.00000000 128.19999695 -263.13314819 311.03382874 34.10013199 -1 1 0 
179 4 2 1.00000000 128.19999695 -265.32547760 308.38308716 32.01600266 -1 1 0 
180 4 2 1.00000000 128.19999695 -264.52256012 304.61673737 31.86621857 -1 1 0 
181 4 1 -1.00000000 129.10000610 -262.13664627 302.05752563 29.82309151 -1 1 0 
182 4 1 -1.00000000 129.10000610 -263.89186478 300.84006500 26.43795204 -1 1 0 
183 4 1 -1.00000000 129.10000610 -267.06835175 301.35466003 23.84774971 -1 1 0 
184 4 2 1.00000000 128.19999695 -266.48393631 303.86504364 21.24402237 -1 1 0 
185 4 2 1.00000000 128.19999695 -264.12632751 307.04110718 22.10735512 -1 1 0 
186 4 2 1.00000000 128.19999695 -261.43825912 307.44336700 19.24440193 -1 1 0 
187 4 1 -1.00000000 129.10000610 -261.74770737 305.74366760 15.94712639 -1 1 0 
188 4 2 1.00000000 128.19999695 -262.61085510 303.55666351 13.03493309 -1 1 0 
189 4 1 -1.00000000 129.10000610 -261.03214645 303.27013397 9.54868793 -1 1 0 
190 4 1 -1.00000000 129.10000610 -263.52437592 304.74885559 6.94371128 -1 1 0 
191 4 1 -1.00000000 129.10000610 -266.08885956 301.93785095 6.42200184 -1 1 0 
192 4 2 1.00000000 128.19999695 -268.84211349 302.32933044 3.91055679 -1 1 0 
193 4 1 -1.00000000 129.10000610 -271.76354218 302.75650787 1.74367344 -1 1 0 
194 4 2 1.00000000 128.19999695 -274.46880341 305.39089966 2.97581983 -1 1 0 
195 4 2 1.00000000 128.19999695 -277.20251465 302.87866211 4.43523216 -1 1 0 
196 4 2 1.00000000 128.19999695 -277.51452637 299.81790924 7.02650642 -1 1 0 
197 4 1 -1.00000000 129.10000610 -278.92895508 300.72262573 10.54749775 -1 1 0 
198 4 2 1.00000000 128.19999695 -282.59518433 299.30775452 10.80286884 -1 1 0 
199 4 1 -1.00000000 129.10000610 -286.24844360 299.62574768 10.12129688 -1 1 0 
200 4 2 1.00000000 128.19999695 -290.30496979 299.62229919 9.79203320 -1 1 0 
201 5 2 1.00000000 128.19999695 -315.22141266 -265.99007797 -228.86789703 -2 -1 -1 
202 5 1 -1.00000000 129.10000610 -315.73688507 -265.83512115 -225.19445229 -2 -1 -1 
203 5 2 1.00000000 128.19999695 -319.61627960 -265.70718002 -224.58840752 -2 -1 -1 
204 5 2 1.00000000 128.19999695 -321.05407715 -266.90889740 -221.26098537 -2 -1 -1 
205 5 2 1.00000000 128.19999695 -319.52938843 -269.16564560 -218.95032787 -2 -1 -1 
206 5 1 -1.00000000 129.10000610 -316.12632751 -270.19154358 -218.87743568 -2 -1 -1 
207 5 2 1.00000000 128.19999695 -313.04339600 -267.78134155 -217.61362457 -2 -1 -1 
208 5 1 -1.00000000 129.10000610 -315.27581024 -265.33533859 -215.62932968 -2 -1 -1 
209 5 1 -1.00000000 129.10000610 -312.76443481 -264.15916061 -213.09954643 -2 -1 -1 
210 5 1 -1.00000000 129.10000610 -309.82034302 -262.78262711 -211.15697074 -1 -1 -1 
211 5 2 1.00000000 128.19999695 -308.39628601 -264.73602295 -208.85955632 -1 -1 -1 
212 5 1 -1.00000000 129.10000610 -305.32325745 -266.68191910 -208.68769658 -1 -1 -1 
213 5 1 -1.00000000 129.10000610 -301.96797943 -265.25243759 -207.95036870 -1 -1 -1 
214 5 1 -1.00000000 129.10000610 -299.54789734 -262.29034424 -207.52497765 -1 -1 -1 
215 5 2 1.00000000 128.19999695 -301.92088318 -260.02301788 -205.37603259 -1 -1 -1 
216 5 2 1.00000000 128.19999695 -304.15430450 -258.52470016 -202.58828163 -1 -1 -1 
217 5 1 -1.00000000 129.10000610 -306.45012665 -256.00590134 -202.27116108 -1 -1 -1 
218 5 1 -1.00000000 129.10000610 -306.89103699 -253.90143204 -205.56675422 -1 -1 -1 
219 5 2 1.00000000 128.19999695 -305.04399872 -251.41765976 -207.36979180 -1 -1 -1 
220 5 1 -1.00000000 129.10000610 -303.00312042 -248.05691910 -207.29827029 -1 -1 -1 
221 5 1 -1.00000000 129.10000610 -304.00768280 -244.55747223 -206.28222680 -1 -1 -1 
222 5 1 -1.00000000 129.10000610 -306.28962708 -241.39126205 -205.51841545 -1 -1 -1 
223 5 2 1.00000000 128.19999695 -309.75715637 -241.46952820 -204.87778616 -1 -1 -1 
224 5 1 -1.00000000 129.10000610 -310.65566254 -245.22609711 -205.38622344 -1 -1 -1 
225 5 1 -1.00000000 129.10000610 -311.23744202 -248.41184616 -204.27817678 -2 -1 -1 
226 5 2 1.00000000 128.19999695 -312.78059387 -250.78866577 -201.51177740 -2 -1 -1 
227 5 2 1.00000000 128.19999695 -314.53207397 -253.54916000 -203.39525795 -2 -1 -1 
228 5 2 1.00000000 128.19999695 -317.83716583 -255.03313065 -204.79973173 -2 -1 -1 
229 5 2 1.00000000 128.19999695 -320.81180573 -255.21237946 -207.04666436 -2 -1 -1 
230 5 2 1.00000000 128.19999695 -324.18087769 -255.58941650 -208.53499651 -2 -1 -1 
231 5 1 -1.00000000 129.10000610 -326.17958069 -257.26113892 -211.37734127 -2 -1 -1 
232 5 1 -1.00000000 129.10000610 -324.46508026 -257.16608429 -214.77301836 -2 -1 -1 
233 5 1 -1.00000000 129.10000610 -323.55048370 -260.28584290 -216.74431992 -2 -1 -1 
234 5 2 1.00000000 128.19999695 -326.41428375 -262.40259171 -216.82444191 -2 -1 -1 
235 5 2 1.00000000 128.19999695 -328.47144318 -262.77789307 -220.16062450 -2 -1 -1 
236 5 2 1.00000000 128.19999695 -331.46776581 -262.25984955 -222.49534607 -2 -1 -1 
237 5 1 -1.00000000 129.10000610 -330.47762299 -261.88657761 -225.99333191 -2 -1 -1 
238 5 2 1.00000000 128.19999695 -328.81122589 -258.62216949 -226.52855492 -2 -1 -1 
239 5 1 -1.00000000 129.10000610 -326.00090790 -258.25506973 -224.36220169 -2 -1 -1 
240 5 1 -1.00000000 129.10000610 -322.52352905 -258.21902466 -225.66373825 -2 -1 -1 
241 5 1 -1.00000000 129.10000610 -322.31230164 -260.97526550 -228.27944756 -2 -1 -1 
242 5 2 1.00000000 128.19999695 -322.03280640 -259.30734253 -231.51281738 -2 -1 -1 
243 5 1 -1.00000000 129.10000610 -322.20093536 -255.31014252 -232.18947411 -2 -1 -1 
244 5 2 1.00000000 128.19999695 -325.63709259 -253.65958405 -232.51784515 -2 -1 -1 
245 5 2 1.00000000 128.19999695 -328.19628143 -252.58320618 -229.67207909 -2 -1 -1 
246 5 2 1.00000000 128.19999695 -331.51019287 -250.84841919 -229.67799377 -2 -1 -1 
247 5 1 -1.00000000 129.10000610 -332.84143066 -247.24970627 -229.69659233 -2 -1 -1 
248 5 2 1.00000000 128.19999695 -330.11244965 -244.68429184 -230.27540588 -2 -1 -1 
249 5 1 -1.00000000 129.10000610 -326.53848267 -245.20655441 -231.68643379 -2 -1 -1 
250 5 2 1.00000000 128.19999695 -324.91731262 -247.46119690 -234.49130058 -2 -1 -1 
251 6 2 1.00000000 128.19999695 418.39061379 -409.51079941 3.47468066 2 -2 0 
252 6 1 -1.00000000 129.10000610 415.02119049 -410.52968597 4.86104631 2 -2 0 
253 6 2 1.00000000 128.19999695 413.68718171 -414.28041983 5.14314890 2 -2 0 
254 6 2 1.00000000 128.19999695 415.31158996 -417.29442358 6.43755674 2 -2 0 
255 6 2 1.00000000 128.19999695 418.09292030 -419.83024454 6.99865341 2 -2 0 
256 6 1 -1.00000000 129.10000610 415.88857341 -422.36169863 9.19425774 2 -2 0 
257 6 2 1.00000000 128.19999695 412.00706577 -422.76521492 10.44832611 2 -2 0 
258 6 1 -1.00000000 129.10000610 412.58234262 -421.26758718 13.72383308 2 -2 0 
259 6 1 -1.00000000 129.10000610 414.96298751 -419.14676285 15.72423172 2 -2 0 
260 6 1 -1.00000000 129.10000610 417.06392026 -416.65998900 13.04764938 2 -2 0 
261 6 2 1.00000000 128.19999695 415.28748083 -413.07252908 12.95045853 2 -2 0 
262 6 1 -1.00000000 129.10000610 416.36552429 -409.85174370 12.51770210 2 -2 0 
263 6 1 -1.00000000 129.10000610 413.71857482 -407.28519869 13.73603630 2 -2 0 
264 6 1 -1.00000000 129.10000610 409.82321310 -406.15419292 13.98809624 2 -2 0 
265 6 2 1.00000000 128.19999695 407.57083559 -404.38588810 16.55482864 2 -2 0 
266 6 2 1.00000000 128.19999695 406.15018463 -403.43546009 19.75969696 2 -2 0 
267 6 1 -1.00000000 129.10000610 407.69459820 -405.48239136 22.34082222 2 -2 0 
268 6 1 -1.00000000 129.10000610 406.62199211 -408.86269569 23.91353798 2 -2 0 
269 6 2 1.00000000 128.19999695 403.18055058 -408.41186428 25.24825287 2 -2 0 
270 6 1 -1.00000000 129.10000610 399.57010841 -407.49632120 25.30213737 2 -2 0 
271 6 1 -1.00000000 129.10000610 397.79715538 -404.58104706 26.80070877 2 -2 0 
272 6 1 -1.00000000 129.10000610 398.88015175 -401.03441715 25.88235664 2 -2 0 
273 6 2 1.00000000 128.19999695 398.67264175 -398.18358421 28.26323318 2 -2 0 
274 6 1 -1.00000000 129.10000610 397.00677872 -395.40716171 26.52761269 2 -2 0 
275 6 1 -1.00000000 129.10000610 397.72092628 -391.79561043 25.22688484 2 -2 0 
276 6 2 1.00000000 128.19999695 400.37397957 -391.62003517 22.10365486 2 -2 0 
277 6 2 1.00000000 128.19999695 401.92463779 -388.19870567 22.52137947 2 -2 0 
278 6 2 1.00000000 128.19999695 402.32400417 -384.87729645 24.20757866 2 -2 0 
279 6 2 1.00000000 128.19999695 405.06279564 -382.83903503 22.10124016 2 -2 0 
280 6 2 1.00000000 128.19999695 404.87430382 -378.93123627 23.18992043 2 -2 0 
281 6 1 -1.00000000 129.10000610 403.81690216 -375.84019089 25.20045280 2 -2 0 
282 6 1 -1.00000000 129.10000610 403.97704315 -377.05892944 28.74426460 2 -2 0 
283 6 1 -1.00000000 129.10000610 406.44209290 -374.17179108 29.80335236 2 -2 0 
284 6 2 1.00000000 128.19999695 409.84418488 -373.88366699 28.54802132 2 -2 0 
285 6 2 1.00000000 128.19999695 411.55301857 -371.87250900 25.63911629 2 -2 0 
286 6 2 1.00000000 128.19999695 410.33362627 -370.65200424 22.40579414 2 -2 0 
287 6 1 -1.00000000 129.10000610 410.58461094 -370.77616119 18.70879745 2 -2 0 
288 6 2 1.00000000 128.19999695 412.86523461 -373.55883026 17.22834969 2 -2 0 
289 6 1 -1.00000000 129.10000610 411.73188043 -376.18246078 15.13221836 2 -2 0 
290 6 1 -1.00000000 129.10000610 408.11605310 -377.25679779 14.23813057 2 -2 0 
291 6 1 -1.00000000 129.10000610 408.87545395 -380.41108704 12.16068935 2 -2 0 
292 6 2 1.00000000 128.19999695 407.78524303 -383.74652290 11.26305389 2 -2 0 
293 6 1 -1.00000000 129.10000610 410.70100403 -385.91389275 12.49220562 2 -2 0 
294 6 2 1.00000000 128.19999695 414.00616622 -384.77165794 12.86582470 2 -2 0 
295 6 2 1.00000000 128.19999695 416.88991809 -386.75193596 13.24211311 2 -2 0 
296 6 2 1.00000000 128.19999695 419.73608160 -387.72863770 15.48290920 2 -2 0 
297 6 1 -1.00000000 129.10000610 418.57645416 -387.94108391 19.14917564 2 -2 0 
298 6 2 1.00000000 128.19999695 414.88661359 -386.62809753 19.25015831 2 -2 0 
299 6 1 -1.00000000 129.10000610 411.44141316 -387.65301895 19.30468750 2 -2 0 
300 6 2 1.00000000 128.19999695 410.40986347 -391.22554016 19.06960106 2 -2 0 
301 7 2 1.00000000 128.19999695 -83.97939301 -40.10686111 -918.75852203 0 0 -4 
302 7 1 -1.00000000 129.10000610 -85.55712128 -36.72271347 -920.11380005 0 0 -4 
303 7 2 1.00000000 128.19999695 -84.46392059 -35.41471863 -923.30503082 0 0 -4 
304 7 2 1.00000000 128.19999695 -84.04917145 -37.20112610 -926.63803101 0 0 -4 
305 7 2 1.00000000 128.19999695 -82.12155914 -38.66431808 -929.16857910 0 0 -4 
306 7 1 -1.00000000 129.10000610 -79.44036102 -40.92564774 -930.57741547 0 0 -4 
307 7 2 1.00000000 128.19999695 -77.83147430 -44.12166977 -929.04589844 0 0 -4 
308 7 1 -1.00000000 129.10000610 -77.39646149 -44.03028107 -925.45459747 0 0 -4 
309 7 1 -1.00000000 129.10000610 -81.09303284 -44.44633865 -923.56502533 0 0 -4 
310 7 1 -1.00000000 129.10000610 -84.39942932 -44.06681824 -924.78614044 0 0 -4 
311 7 2 1.00000000 128.19999695 -85.97421265 -45.55790329 -928.11752319 0 0 -4 
312 7 1 -1.00000000 129.10000610 -89.02590179 -43.94403076 -929.94463348 0 0 -4 
313 7 1 -1.00000000 129.10000610 -87.49597168 -43.87789917 -933.23867798 0 0 -5 
314 7 1 -1.00000000 129.10000610 -85.74295044 -42.15100098 -936.06091309 0 0 -5 
315 7 2 1.00000000 128.19999695 -81.99055481 -41.58263016 -936.52344513 0 0 -5 
316 7 2 1.00000000 128.19999695 -81.32452393 -37.78524780 -935.61773682 0 0 -5 
317 7 1 -1.00000000 129.10000610 -82.87116241 -34.74436569 -934.36009979 0 0 -5 
318 7 1 -1.00000000 129.10000610 -84.72476196 -33.03867340 -931.68292236 0 0 -4 
319 7 2 1.00000000 128.19999695 -82.97882843 -31.20741653 -928.81655121 0 0 -4 
320 7 1 -1.00000000 129.10000610 -79.59239960 -29.31565666 -929.55673218 0 0 -4 
321 7 1 -1.00000000 129.10000610 -78.58343506 -26.95039177 -927.15596771 0 0 -4 
322 7 1 -1.00000000 129.10000610 -75.40317535 -25.71168137 -926.17990112 0 0 -4 
323 7 2 1.00000000 128.19999695 -72.15010834 -27.41609573 -926.02034760 0 0 -4 
324 7 1 -1.00000000 129.10000610 -69.37106323 -24.89387703 -927.46170807 0 0 -4 
325 7 1 -1.00000000 129.10000610 -67.08739471 -21.82178116 -928.13705444 0 0 -4 
326 7 2 1.00000000 128.19999695 -66.79750061 -18.29608536 -927.50666046 0 0 -4 
327 7 2 1.00000000 128.19999695 -68.86035919 -16.23443222 -924.68875885 0 0 -4 
328 7 2 1.00000000 128.19999695 -71.02261353 -13.38352203 -925.44855499 0 0 -4 
329 7 2 1.00000000 128.19999695 -74.40653229 -13.98682880 -926.77031708 0 0 -4 
330 7 2 1.00000000 128.19999695 -77.42080688 -12.40407085 -929.23266602 0 0 -4 
331 7 1 -1.00000000 129.10000610 -80.37071991 -14.81082249 -928.05757904 0 0 -4 
332 7 1 -1.00000000 129.10000610 -81.22917175 -14.01784801 -924.49129486 0 0 -4 
333 7 1 -1.00000000 129.10000610 -80.40605164 -15.22044182 -921.22195435 0 0 -4 
334 7 2 1.00000000 128.19999695 -78.38123322 -18.16501236 -920.73085022 0 0 -4 
335 7 2 1.00000000 128.19999695 -78.09850311 -19.17683601 -917.15412140 0 0 -4 
336 7 2 1.00000000 128.19999695 -78.86647034 -16.45244980 -914.51026917 0 0 -4 
337 7 1 -1.00000000 129.10000610 -82.54827881 -18.23771667 -914.08103180 0 0 -4 
338 7 2 1.00000000 128.19999695 -85.74091339 -17.18191147 -912.18238831 0 0 -4 
339 7 1 -1.00000000 129.10000610 -87.36287689 -19.50821304 -909.57790375 0 0 -4 
340 7 1 -1.00000000 129.10000610 -88.13401031 -19.73936844 -905.85074615 0 0 -4 
341 7 1 -1.00000000 129.10000610 -88.65941620 -21.69091225 -902.39868164 0 0 -4 
342 7 2 1.00000000 128.19999695 -87.32962799 -25.28860664 -902.56846619 0 0 -4 
343 7 1 -1.00000000 129.10000610 -85.33263397 -28.22728539 -903.79695129 0 0 -4 
344 7 2 1.00000000 128.19999695 -83.60994720 -31.51434135 -904.50874329 0 0 -4 
345 7 2 1.00000000 128.19999695 -82.99835968 -33.40687943 -901.09105682 0 0 -4 
346 7 2 1.00000000 128.19999695 -82.85083008 -31.21946144 -898.08364105 0 0 -4 
347 7 1 -1.00000000 129.10000610 -79.07530975 -30.08842659 -897.19717407 0 0 -4 
348 7 2 1.00000000 128.19999695 -78.70142365 -30.30171204 -893.43441772 0 0 -4 
349 7 1 -1.00000000 129.10000610 -74.92272949 -30.43779373 -892.58551025 0 0 -4 
350 7 2 1.00000000 128.19999695 -74.21504211 -30.04361153 -888.98579407 0 0 -4 
351 8 2 1.00000000 128.19999695 68.47946167 -151.21875000 587.24454880 0 -1 3 
352 8 1 -1.00000000 129.10000610 67.51480865 -147.81358337 588.60418701 0 -1 3 
353 8 2 1.00000000 128.19999695 68.15128326 -144.10359955 590.05618286 0 -1 3 
354 8 2 1.00000000 128.19999695 71.28164673 -142.43704224 588.36696243 0 -1 3 
355 8 2 1.00000000 128.19999695 72.13202667 -141.12940216 585.09688950 0 -1 3 
356 8 1 -1.00000000 129.10000610 71.18124390 -142.71431732 581.91121292 0 -1 3 
357 8 2 1.00000000 128.19999695 71.74965668 -145.02031708 579.08920288 0 -1 3 
358 8 1 -1.00000000 129.10000610 73.29242706 -148.67572021 578.13746643 0 -1 3 
359 8 1 -1.00000000 129.10000610 75.55657959 -149.86780930 580.77904129 0 -1 3 
360 8 1 -1.00000000 129.10000610 78.77220154 -148.39044952 580.47790146 0 -1 3 
361 8 2 1.00000000 128.19999695 82.53549194 -149.56962967 581.84530640 0 -1 3 
362 8 1 -1.00000000 129.10000610 86.13854218 -148.93472672 580.68321991 0 -1 3 
363 8 1 -1.00000000 129.10000610 89.48547363 -147.83992386 582.08782196 0 -1 3 
364 8 1 -1.00000000 129.10000610 91.38555908 -145.44563675 584.85002136 0 -1 3 
365 8 2 1.00000000 128.19999695 89.47595978 -143.48814011 587.30156708 0 -1 3 
366 8 2 1.00000000 128.19999695 87.58184814 -141.30590057 589.40284348 0 -1 3 
367 8 1 -1.00000000 129.10000610 86.27519989 -137.78610992 588.70112991 0 -1 3 
368 8 1 -1.00000000 129.10000610 86.44741058 -134.76023865 590.29841995 0 -1 3 
369 8 2 1.00000000 128.19999695 84.36454010 -131.56054688 588.80773926 0 -1 3 
370 8 1 -1.00000000 129.10000610 80.93355560 -130.67359924 590.51171494 0 -1 3 
371 8 1 -1.00000000 129.10000610 79.75094604 -127.39313507 589.47442627 0 -1 3 
372 8 1 -1.00000000 129.10000610 79.33821869 -123.89215851 588.94186401 0 -1 3 