ITEM: TIMESTEP
42250000 
ITEM: NUMBER OF ATOMS 
25000 
ITEM: BOX BOUNDS pp pp pp 
-103.678017 103.678017 
-103.678017 103.678017 
-103.678017 103.678017 
ITEM: ATOMS id mol type q mass xu yu zu ix iy iz 
1 1 2 1.00000000 128.19999695 504.67682648 -107.63037872 -253.73979568 2 -1 -1 
2 1 1 -1.00000000 129.10000610 507.45294952 -107.25424194 -251.14603806 2 -1 -1 
3 1 2 1.00000000 128.19999695 506.97383881 -105.93274689 -247.52162552 2 -1 -1 
4 1 2 1.00000000 128.19999695 503.30676270 -106.48271179 -246.02267075 2 -1 -1 
5 1 2 1.00000000 128.19999695 499.64379120 -106.45452881 -245.36896515 2 -1 -1 
6 1 1 -1.00000000 129.10000610 499.17206573 -106.14764404 -241.53371811 2 -1 -1 
7 1 2 1.00000000 128.19999695 495.73205566 -106.39151001 -240.50000763 2 -1 -1 
8 1 1 -1.00000000 129.10000610 492.66677094 -106.00274658 -238.65678406 2 -1 -1 
9 1 1 -1.00000000 129.10000610 493.66767883 -104.42976379 -235.37759781 2 -1 -1 
10 1 1 -1.00000000 129.10000610 493.32976532 -100.46278381 -236.37352753 2 0 -1 
11 1 2 1.00000000 128.19999695 493.32849121 -97.76905060 -238.87179184 2 0 -1 
12 1 1 -1.00000000 129.10000610 490.62812042 -95.14844513 -238.81560898 2 0 -1 
13 1 1 -1.00000000 129.10000610 487.41983795 -96.69833374 -237.49991035 2 0 -1 
14 1 1 -1.00000000 129.10000610 486.48307037 -98.76203156 -240.99353790 2 0 -1 
15 1 2 1.00000000 128.19999695 488.22012329 -102.15908051 -242.01794434 2 0 -1 
16 1 2 1.00000000 128.19999695 487.05606079 -103.89593506 -245.51506042 2 -1 -1 
17 1 1 -1.00000000 129.10000610 488.39126587 -107.10079193 -245.64438248 2 -1 -1 
18 1 1 -1.00000000 129.10000610 485.13507843 -109.30335999 -246.11185455 2 -1 -1 
19 1 2 1.00000000 128.19999695 482.62149811 -112.38850403 -246.36682510 2 -1 -1 
20 1 1 -1.00000000 129.10000610 482.02680206 -115.60586548 -244.33660889 2 -1 -1 
21 1 1 -1.00000000 129.10000610 478.62507629 -117.33901215 -243.15748978 2 -1 -1 
22 1 1 -1.00000000 129.10000610 478.70759583 -120.86071014 -241.99634933 2 -1 -1 
23 1 2 1.00000000 128.19999695 478.30944061 -124.27416229 -243.28583145 2 -1 -1 
24 1 1 -1.00000000 129.10000610 474.59059525 -124.84120178 -244.41453171 2 -1 -1 
25 1 1 -1.00000000 129.10000610 473.13964844 -127.76895905 -242.50225449 2 -1 -1 
26 1 2 1.00000000 128.19999695 470.28936768 -127.88697815 -240.83993912 2 -1 -1 
27 1 2 1.00000000 128.19999695 469.10286713 -124.93311310 -239.15060806 2 -1 -1 
28 1 2 1.00000000 128.19999695 472.29765320 -124.81107330 -236.55879784 2 -1 -1 
29 1 2 1.00000000 128.19999695 474.07683182 -121.47390747 -235.48960114 2 -1 -1 
30 1 2 1.00000000 128.19999695 476.67224503 -119.81646729 -233.34261322 2 -1 -1 
31 1 1 -1.00000000 129.10000610 476.64856339 -116.77969360 -231.84964180 2 -1 -1 
32 1 1 -1.00000000 129.10000610 475.67279434 -113.44734955 -231.05305672 2 -1 -1 
33 1 1 -1.00000000 129.10000610 472.04913330 -113.47725677 -230.07099342 2 -1 -1 
34 1 2 1.00000000 128.19999695 469.17776489 -111.07398224 -230.70579147 2 -1 -1 
35 1 2 1.00000000 128.19999695 466.17511749 -108.68264008 -229.84209061 2 -1 -1 
36 1 2 1.00000000 128.19999695 463.63753510 -109.32647705 -227.00712967 2 -1 -1 
37 1 1 -1.00000000 129.10000610 459.85743713 -108.61501312 -228.47985840 2 -1 -1 
38 1 2 1.00000000 128.19999695 457.25039673 -110.29032898 -230.91043282 2 -1 -1 
39 1 1 -1.00000000 129.10000610 453.91329575 -108.50361633 -231.15265274 2 -1 -1 
40 1 1 -1.00000000 129.10000610 450.86969757 -107.81509399 -233.40206718 2 -1 -1 
41 1 1 -1.00000000 129.10000610 448.13040161 -109.86085510 -234.52571869 2 -1 -1 
42 1 2 1.00000000 128.19999695 444.39882278 -111.47727966 -235.40522766 2 -1 -1 
43 1 1 -1.00000000 129.10000610 442.12888336 -108.75693512 -234.59661674 2 -1 -1 
44 1 2 1.00000000 128.19999695 442.61144829 -105.30868530 -233.45019722 2 -1 -1 
45 1 2 1.00000000 128.19999695 445.67781448 -104.56098175 -231.02662659 2 -1 -1 
46 1 2 1.00000000 128.19999695 448.17405701 -103.14279175 -228.47028732 2 0 -1 
47 1 1 -1.00000000 129.10000610 451.86338806 -102.30818176 -228.61544800 2 0 -1 
48 1 2 1.00000000 128.19999695 453.54018784 -101.03997040 -225.32012367 2 0 -1 
49 1 1 -1.00000000 129.10000610 455.64463806 -98.09429169 -225.23969269 2 0 -1 
50 1 2 1.00000000 128.19999695 456.79123688 -95.10555267 -227.25442123 2 0 -1 
51 2 2 1.00000000 128.19999695 405.26873589 407.02638865 -337.24187469 2 2 -2 
52 2 1 -1.00000000 129.10000610 405.88928318 408.60295010 -341.05171204 2 2 -2 
53 2 2 1.00000000 128.19999695 406.89639091 409.96918058 -344.41777039 2 2 -2 
54 2 2 1.00000000 128.19999695 408.53189802 406.92075157 -346.70677948 2 2 -2 
55 2 2 1.00000000 128.19999695 410.30053520 403.75258064 -346.11680603 2 2 -2 
56 2 1 -1.00000000 129.10000610 413.69913304 403.05734062 -344.46413422 2 2 -2 
57 2 2 1.00000000 128.19999695 416.59533095 404.85031414 -345.75959778 2 2 -2 
58 2 1 -1.00000000 129.10000610 418.09157324 406.49960613 -348.87633514 2 2 -2 
59 2 1 -1.00000000 129.10000610 421.45993519 407.59007311 -347.21182251 2 2 -2 
60 2 1 -1.00000000 129.10000610 424.66291332 406.18603706 -346.44728851 2 2 -2 
61 2 2 1.00000000 128.19999695 427.41702175 406.35803032 -349.50051880 2 2 -2 
62 2 1 -1.00000000 129.10000610 428.55132198 409.98414230 -350.02139282 2 2 -2 
63 2 1 -1.00000000 129.10000610 431.48684311 410.64405060 -347.46600342 2 2 -2 
64 2 1 -1.00000000 129.10000610 433.41519928 407.53246689 -347.30162048 2 2 -2 
65 2 2 1.00000000 128.19999695 433.88049126 405.65342808 -350.86772156 2 2 -2 
66 2 2 1.00000000 128.19999695 437.49629021 405.69266796 -351.66818237 2 2 -2 
67 2 1 -1.00000000 129.10000610 441.02238464 407.18753242 -349.63568878 2 2 -2 
68 2 1 -1.00000000 129.10000610 442.03393173 406.70065594 -345.80754852 2 2 -2 
69 2 2 1.00000000 128.19999695 442.66275978 403.02060890 -344.38687897 2 2 -2 
70 2 1 -1.00000000 129.10000610 440.19127846 400.56512070 -342.72032166 2 2 -2 
71 2 1 -1.00000000 129.10000610 438.04231644 397.78832817 -343.39841461 2 2 -2 
72 2 1 -1.00000000 129.10000610 435.88855743 398.22264290 -346.95034790 2 2 -2 
73 2 2 1.00000000 128.19999695 432.69259071 398.32101250 -349.20243835 2 2 -2 
74 2 1 -1.00000000 129.10000610 433.39264297 395.47986031 -351.71640015 2 2 -2 
75 2 1 -1.00000000 129.10000610 434.80453110 392.92221642 -354.28474426 2 2 -2 
76 2 2 1.00000000 128.19999695 433.32345009 389.47350502 -353.47252274 2 2 -2 
77 2 2 1.00000000 128.19999695 432.91344261 386.46035004 -350.88027191 2 2 -2 
78 2 2 1.00000000 128.19999695 436.40251350 386.10999298 -349.55487823 2 2 -2 
79 2 2 1.00000000 128.19999695 435.61173820 385.42252159 -345.67068481 2 2 -2 
80 2 2 1.00000000 128.19999695 435.17656708 383.72752380 -342.36038971 2 2 -2 
81 2 1 -1.00000000 129.10000610 437.20712852 383.05142593 -339.27811432 2 2 -2 
82 2 1 -1.00000000 129.10000610 438.09089470 384.88288879 -335.82786560 2 2 -2 
83 2 1 -1.00000000 129.10000610 437.47110367 385.48040581 -332.32504272 2 2 -2 
84 2 2 1.00000000 128.19999695 438.49564552 386.06334114 -328.97045898 2 2 -2 
85 2 2 1.00000000 128.19999695 438.64508057 385.73449326 -325.10633850 2 2 -2 
86 2 2 1.00000000 128.19999695 441.21445084 385.61791229 -322.37354279 2 2 -2 
87 2 1 -1.00000000 129.10000610 441.12085342 383.75516510 -319.10513306 2 2 -2 
88 2 2 1.00000000 128.19999695 442.41869736 382.73635292 -315.66419220 2 2 -2 
89 2 1 -1.00000000 129.10000610 440.94129753 385.30762863 -313.12660217 2 2 -2 
90 2 1 -1.00000000 129.10000610 439.14611816 385.59183502 -309.60824585 2 2 -1 
91 2 1 -1.00000000 129.10000610 438.42687416 386.01518059 -305.75012207 2 2 -1 
92 2 2 1.00000000 128.19999695 437.86138344 386.57763481 -302.24589539 2 2 -1 
93 2 1 -1.00000000 129.10000610 440.39553833 386.28403282 -299.12933350 2 2 -1 
94 2 2 1.00000000 128.19999695 440.33058357 386.42735481 -295.26159668 2 2 -1 
95 2 2 1.00000000 128.19999695 443.87420273 387.37897682 -294.06093597 2 2 -1 
96 2 2 1.00000000 128.19999695 444.72895622 389.08699799 -290.63651276 2 2 -1 
97 2 1 -1.00000000 129.10000610 448.50709152 389.23641586 -290.53923035 2 2 -1 
98 2 2 1.00000000 128.19999695 450.32748795 386.04584122 -292.00117493 2 2 -1 
99 2 1 -1.00000000 129.10000610 452.50226974 383.23729515 -290.78958130 2 2 -1 
100 2 2 1.00000000 128.19999695 455.45707321 381.03868103 -291.86311340 2 2 -1 
101 3 2 1.00000000 128.19999695 326.00951385 -33.84335327 37.01173019 2 0 0 
102 3 1 -1.00000000 129.10000610 324.98380280 -36.06356049 40.07749939 2 0 0 
103 3 2 1.00000000 128.19999695 327.13697052 -38.82750702 40.75717163 2 0 0 
104 3 2 1.00000000 128.19999695 326.98517609 -41.76501465 43.55171967 2 0 0 
105 3 2 1.00000000 128.19999695 329.58203888 -43.14360809 45.71072006 2 0 0 
106 3 1 -1.00000000 129.10000610 331.36878967 -46.65547943 46.28963470 2 0 0 
107 3 2 1.00000000 128.19999695 331.58654022 -50.48194122 46.38801956 2 0 0 
108 3 1 -1.00000000 129.10000610 334.59564209 -52.63229370 47.62480927 2 0 0 
109 3 1 -1.00000000 129.10000610 333.51095581 -56.17220306 46.52858734 2 0 0 
110 3 1 -1.00000000 129.10000610 333.95281219 -59.21016693 49.12368774 2 0 0 
111 3 2 1.00000000 128.19999695 333.36854553 -61.18333054 52.32164383 2 0 0 
112 3 1 -1.00000000 129.10000610 332.48224640 -64.10348511 54.68954849 2 0 0 
113 3 1 -1.00000000 129.10000610 335.50722504 -65.88586426 56.01535416 2 0 0 
114 3 1 -1.00000000 129.10000610 339.19750214 -65.66449738 57.04350662 2 0 0 
115 3 2 1.00000000 128.19999695 341.34094238 -62.92577362 59.36209488 2 0 0 
116 3 2 1.00000000 128.19999695 345.01319885 -62.03382874 59.45557022 2 0 0 
117 3 1 -1.00000000 129.10000610 348.66289520 -62.67979050 57.78517151 2 0 0 
118 3 1 -1.00000000 129.10000610 349.29148102 -66.38108826 57.00335312 2 0 0 
119 3 2 1.00000000 128.19999695 349.72876740 -69.31790924 59.28961563 2 0 0 
120 3 1 -1.00000000 129.10000610 349.82077789 -71.39814758 62.24253082 2 0 0 
121 3 1 -1.00000000 129.10000610 347.34336090 -72.16051483 64.78626251 2 0 0 
122 3 1 -1.00000000 129.10000610 344.15931702 -74.52374268 65.98691559 2 0 0 
123 3 2 1.00000000 128.19999695 341.08522797 -73.19869232 64.18954468 2 0 0 
124 3 1 -1.00000000 129.10000610 341.83625031 -69.32052612 63.50581360 2 0 0 
125 3 1 -1.00000000 129.10000610 338.71179199 -67.58998108 62.60590363 2 0 0 
126 3 2 1.00000000 128.19999695 334.88939667 -67.66352844 63.85131073 2 0 0 
127 3 2 1.00000000 128.19999695 332.71623230 -68.79914093 61.00064850 2 0 0 
128 3 2 1.00000000 128.19999695 329.30184174 -69.42497253 59.81111908 2 0 0 
129 3 2 1.00000000 128.19999695 325.67511749 -70.06285095 58.80029297 2 0 0 
130 3 2 1.00000000 128.19999695 324.13762665 -73.74875641 58.82702637 2 0 0 
131 3 1 -1.00000000 129.10000610 322.33135223 -75.32558441 55.92491913 2 0 0 
132 3 1 -1.00000000 129.10000610 318.88042450 -73.77277374 56.27487183 2 0 0 
133 3 1 -1.00000000 129.10000610 316.93031311 -75.27768707 59.11794662 2 0 0 
134 3 2 1.00000000 128.19999695 314.38470459 -77.03444672 61.78115082 2 0 0 
135 3 2 1.00000000 128.19999695 316.44930267 -78.75190735 64.59600830 2 0 0 
136 3 2 1.00000000 128.19999695 316.41371155 -77.26384735 68.32733917 2 0 0 
137 3 1 -1.00000000 129.10000610 313.23966980 -76.16789246 69.86175537 2 0 0 
138 3 2 1.00000000 128.19999695 310.28918457 -74.06869507 69.02062988 1 0 0 
139 3 1 -1.00000000 129.10000610 306.90223694 -73.88230133 66.88788605 1 0 0 
140 3 1 -1.00000000 129.10000610 305.99062347 -74.64739990 63.25153351 1 0 0 
141 3 1 -1.00000000 129.10000610 307.92498016 -75.04064941 60.54152679 1 0 0 
142 3 2 1.00000000 128.19999695 308.72099304 -73.75463104 56.99787903 1 0 0 
143 3 1 -1.00000000 129.10000610 311.85709381 -73.21099854 54.61796570 2 0 0 
144 3 2 1.00000000 128.19999695 314.58837891 -70.15139008 53.79890060 2 0 0 
145 3 2 1.00000000 128.19999695 314.28923035 -69.20487976 50.31376648 2 0 0 
146 3 2 1.00000000 128.19999695 316.98732758 -70.04964447 47.54993057 2 0 0 
147 3 1 -1.00000000 129.10000610 317.84671783 -72.90164185 45.46090317 2 0 0 
148 3 2 1.00000000 128.19999695 314.80070496 -73.37303162 43.21116257 2 0 0 
149 3 1 -1.00000000 129.10000610 311.80196381 -71.91543579 44.15780258 2 0 0 
150 3 2 1.00000000 128.19999695 309.27005768 -68.85994720 44.13478088 1 0 0 
151 4 2 1.00000000 128.19999695 -311.63409424 403.84496498 86.93682098 -2 2 0 
152 4 1 -1.00000000 129.10000610 -313.68713379 401.46616936 84.83147430 -2 2 0 
153 4 2 1.00000000 128.19999695 -315.46876526 403.40236664 82.09895325 -2 2 0 
154 4 2 1.00000000 128.19999695 -317.24156189 406.62052727 81.19699097 -2 2 0 
155 4 2 1.00000000 128.19999695 -318.47918701 410.28285933 82.50094604 -2 2 0 
156 4 1 -1.00000000 129.10000610 -319.18137360 411.72123623 79.05681610 -2 2 0 
157 4 2 1.00000000 128.19999695 -320.17584229 411.37963700 75.53408813 -2 2 0 
158 4 1 -1.00000000 129.10000610 -317.90235901 413.07700264 73.31975555 -2 2 0 
159 4 1 -1.00000000 129.10000610 -314.16573334 412.49892497 73.69081879 -2 2 0 
160 4 1 -1.00000000 129.10000610 -311.59675598 413.47373176 70.90759277 -2 2 0 
161 4 2 1.00000000 128.19999695 -312.41479492 412.96929014 67.18785858 -2 2 0 
162 4 1 -1.00000000 129.10000610 -313.51074982 411.79296279 63.51496124 -2 2 0 
163 4 1 -1.00000000 129.10000610 -315.43025208 414.40888149 61.44973755 -2 2 0 
164 4 1 -1.00000000 129.10000610 -316.31619263 413.73510057 57.69072723 -2 2 0 
165 4 2 1.00000000 128.19999695 -314.10263824 413.69924474 54.62341690 -2 2 0 
166 4 2 1.00000000 128.19999695 -317.29992676 414.48843810 52.08691025 -2 2 0 
167 4 1 -1.00000000 129.10000610 -317.41898346 412.94912410 48.69065094 -2 2 0 
168 4 1 -1.00000000 129.10000610 -316.24761200 410.53629208 46.34819412 -2 2 0 
169 4 2 1.00000000 128.19999695 -313.49607849 407.79665804 45.18838882 -2 2 0 
170 4 1 -1.00000000 129.10000610 -309.72408295 408.58442020 44.98521805 -1 2 0 
171 4 1 -1.00000000 129.10000610 -306.05410004 407.63021183 44.61480331 -1 2 0 
172 4 1 -1.00000000 129.10000610 -305.05223846 404.61382198 46.61281967 -1 2 0 
173 4 2 1.00000000 128.19999695 -304.46306610 401.12374401 47.78762054 -1 2 0 
174 4 1 -1.00000000 129.10000610 -303.34544373 398.34778404 49.67858505 -1 2 0 
175 4 1 -1.00000000 129.10000610 -300.04868317 395.88792419 48.70888901 -1 2 0 
176 4 2 1.00000000 128.19999695 -297.97321320 396.05872345 51.53504181 -1 2 0 
177 4 2 1.00000000 128.19999695 -294.26731873 396.26368141 50.58199310 -1 2 0 
178 4 2 1.00000000 128.19999695 -291.78524017 393.59366608 52.11360931 -1 2 0 
179 4 2 1.00000000 128.19999695 -290.79073334 393.92308426 55.91655350 -1 2 0 
180 4 2 1.00000000 128.19999695 -289.16171265 397.09999847 56.50771713 -1 2 0 
181 4 1 -1.00000000 129.10000610 -291.29653931 400.11699009 55.46133423 -1 2 0 
182 4 1 -1.00000000 129.10000610 -294.07274628 401.97721291 56.21310425 -1 2 0 
183 4 1 -1.00000000 129.10000610 -297.49065399 403.17687225 54.99113083 -1 2 0 
184 4 2 1.00000000 128.19999695 -300.85146332 403.70234871 53.24481964 -1 2 0 
185 4 2 1.00000000 128.19999695 -302.14527130 407.20736456 52.07896042 -1 2 0 
186 4 2 1.00000000 128.19999695 -304.35928345 410.11219931 52.40315247 -1 2 0 
187 4 1 -1.00000000 129.10000610 -307.96208191 411.00522041 52.00484848 -1 2 0 
188 4 2 1.00000000 128.19999695 -309.34041595 414.44330388 51.10504532 -1 2 0 
189 4 1 -1.00000000 129.10000610 -307.16963959 417.00887918 52.91502380 -1 2 0 
190 4 1 -1.00000000 129.10000610 -310.27111816 418.52903891 54.60068130 -1 2 0 
191 4 1 -1.00000000 129.10000610 -313.64438629 419.25658417 55.41250229 -2 2 0 
192 4 2 1.00000000 128.19999695 -315.78083038 419.85569763 58.67113876 -2 2 0 
193 4 1 -1.00000000 129.10000610 -315.60955048 423.25235939 59.96239090 -2 2 0 
194 4 2 1.00000000 128.19999695 -312.18662262 424.58612919 60.26579285 -2 2 0 
195 4 2 1.00000000 128.19999695 -309.18458557 423.56697655 57.95288849 -1 2 0 
196 4 2 1.00000000 128.19999695 -307.26764679 424.89821720 54.98579788 -1 2 0 
197 4 1 -1.00000000 129.10000610 -305.32411194 424.75058746 51.77396393 -1 2 0 
198 4 2 1.00000000 128.19999695 -306.43756104 426.07092953 48.46854782 -1 2 0 
199 4 1 -1.00000000 129.10000610 -309.82210541 424.72399426 47.36801529 -1 2 0 
200 4 2 1.00000000 128.19999695 -312.27539062 423.71445847 50.07283020 -2 2 0 
201 5 2 1.00000000 128.19999695 -333.28037262 -280.91941071 -269.37154770 -2 -1 -1 
202 5 1 -1.00000000 129.10000610 -333.02738953 -283.65730286 -271.91767120 -2 -1 -1 
203 5 2 1.00000000 128.19999695 -333.28510284 -284.74762726 -275.39929199 -2 -1 -1 
204 5 2 1.00000000 128.19999695 -334.03832245 -287.81419373 -278.10200500 -2 -1 -1 
205 5 2 1.00000000 128.19999695 -336.69194031 -289.94966888 -277.43186951 -2 -1 -1 
206 5 1 -1.00000000 129.10000610 -337.96741486 -292.80908203 -274.56188202 -2 -1 -1 
207 5 2 1.00000000 128.19999695 -337.05648804 -293.01538849 -270.88012695 -2 -1 -1 
208 5 1 -1.00000000 129.10000610 -335.19805908 -295.22824860 -268.10245132 -2 -1 -1 
209 5 1 -1.00000000 129.10000610 -331.76802826 -294.41117096 -267.78332520 -2 -1 -1 
210 5 1 -1.00000000 129.10000610 -329.34015656 -292.45096588 -269.60528183 -2 -1 -1 
211 5 2 1.00000000 128.19999695 -329.16845703 -292.02825165 -273.93678284 -2 -1 -1 
212 5 1 -1.00000000 129.10000610 -329.90570831 -293.85140228 -277.05158234 -2 -1 -1 
213 5 1 -1.00000000 129.10000610 -326.97858429 -293.49609375 -279.38796234 -2 -1 -1 
214 5 1 -1.00000000 129.10000610 -323.77835846 -291.25350189 -279.21426392 -2 -1 -1 
215 5 2 1.00000000 128.19999695 -320.32175446 -292.22145844 -278.45265961 -2 -1 -1 
216 5 2 1.00000000 128.19999695 -317.99953461 -293.90378571 -275.85897064 -2 -1 -1 
217 5 1 -1.00000000 129.10000610 -314.17944336 -293.61600494 -274.60896301 -2 -1 -1 
218 5 1 -1.00000000 129.10000610 -313.28997040 -291.04605865 -277.10730743 -2 -1 -1 
219 5 2 1.00000000 128.19999695 -309.86655426 -289.16753387 -276.47816467 -1 -1 -1 
220 5 1 -1.00000000 129.10000610 -311.49073029 -285.92970276 -277.83325958 -2 -1 -1 
221 5 1 -1.00000000 129.10000610 -314.10252380 -283.14318848 -276.97348022 -2 -1 -1 
222 5 1 -1.00000000 129.10000610 -317.45571136 -284.58219910 -275.79579163 -2 -1 -1 
223 5 2 1.00000000 128.19999695 -319.71349335 -281.71910858 -276.46487427 -2 -1 -1 
224 5 1 -1.00000000 129.10000610 -321.86202240 -281.71531677 -273.24098969 -2 -1 -1 
225 5 1 -1.00000000 129.10000610 -323.46215820 -285.17701721 -272.26593781 -2 -1 -1 
226 5 2 1.00000000 128.19999695 -325.27885437 -287.47253418 -269.74591827 -2 -1 -1 
227 5 2 1.00000000 128.19999695 -323.30552673 -289.81264496 -267.62519836 -2 -1 -1 
228 5 2 1.00000000 128.19999695 -324.35026550 -293.09702301 -265.91391373 -2 -1 -1 
229 5 2 1.00000000 128.19999695 -323.99882507 -296.72176361 -268.09416962 -2 -1 -1 
230 5 2 1.00000000 128.19999695 -324.96813202 -299.71353912 -265.54875946 -2 -1 -1 
231 5 1 -1.00000000 129.10000610 -325.41075134 -303.38690948 -266.35250473 -2 -1 -1 
232 5 1 -1.00000000 129.10000610 -323.24756622 -306.03445435 -267.42496109 -2 -1 -1 
233 5 1 -1.00000000 129.10000610 -320.53732300 -306.09868622 -270.55161667 -2 -1 -1 
234 5 2 1.00000000 128.19999695 -316.77717590 -305.43069458 -270.14247894 -2 -1 -1 
235 5 2 1.00000000 128.19999695 -314.68999481 -305.98763275 -273.22205353 -2 -1 -1 
236 5 2 1.00000000 128.19999695 -313.11875916 -303.76872253 -275.63537598 -2 -1 -1 
237 5 1 -1.00000000 129.10000610 -312.12695312 -305.52806091 -279.23477173 -2 -1 -1 
238 5 2 1.00000000 128.19999695 -310.28495026 -303.22869110 -281.71153259 -1 -1 -1 
239 5 1 -1.00000000 129.10000610 -308.72527313 -305.33180237 -284.11589050 -1 -1 -1 
240 5 1 -1.00000000 129.10000610 -305.53218842 -307.73681641 -283.29512024 -1 -1 -1 
241 5 1 -1.00000000 129.10000610 -302.55487061 -305.56479645 -283.19607544 -1 -1 -1 
242 5 2 1.00000000 128.19999695 -301.98162079 -303.56543732 -286.16729736 -1 -1 -1 
243 5 1 -1.00000000 129.10000610 -301.17886353 -302.80778503 -289.67680359 -1 -1 -1 
244 5 2 1.00000000 128.19999695 -297.59152985 -303.36842346 -291.49530029 -1 -1 -1 
245 5 2 1.00000000 128.19999695 -297.10536194 -306.45227814 -293.44578552 -1 -1 -1 
246 5 2 1.00000000 128.19999695 -296.69565582 -308.54919434 -296.48434448 -1 -1 -1 
247 5 1 -1.00000000 129.10000610 -300.26168823 -309.95175934 -296.35769653 -1 -1 -1 
248 5 2 1.00000000 128.19999695 -303.79988098 -309.56375122 -295.84424591 -1 -1 -1 
249 5 1 -1.00000000 129.10000610 -305.03273010 -308.97325134 -292.48274231 -1 -1 -1 
250 5 2 1.00000000 128.19999695 -305.14033508 -310.87257385 -289.06202698 -1 -1 -1 
251 6 2 1.00000000 128.19999695 450.32400131 -406.60761833 -181.98417282 2 -2 -1 
252 6 1 -1.00000000 129.10000610 446.40260506 -406.09204102 -181.87370872 2 -2 -1 
253 6 2 1.00000000 128.19999695 446.26173210 -403.61699104 -185.01470375 2 -2 -1 
254 6 2 1.00000000 128.19999695 446.33502197 -406.16335011 -188.09997940 2 -2 -1 
255 6 2 1.00000000 128.19999695 449.80427551 -407.75772476 -189.28198814 2 -2 -1 
256 6 1 -1.00000000 129.10000610 452.31108856 -410.19931602 -187.69927979 2 -2 -1 
257 6 2 1.00000000 128.19999695 455.71620178 -408.47841358 -188.22909546 2 -2 -1 
258 6 1 -1.00000000 129.10000610 458.61321640 -408.02539921 -185.68125534 2 -2 -1 
259 6 1 -1.00000000 129.10000610 457.70450211 -405.67450237 -182.86871910 2 -2 -1 
260 6 1 -1.00000000 129.10000610 459.58321381 -403.38328743 -180.54871368 2 -2 -1 
261 6 2 1.00000000 128.19999695 458.59638596 -400.17821026 -178.96624947 2 -2 -1 
262 6 1 -1.00000000 129.10000610 455.43664551 -398.52979469 -177.65495300 2 -2 -1 
263 6 1 -1.00000000 129.10000610 454.76377869 -395.05438423 -176.68018532 2 -2 -1 
264 6 1 -1.00000000 129.10000610 452.60492706 -394.91454887 -173.23732376 2 -2 -1 
265 6 2 1.00000000 128.19999695 453.60012436 -396.52935410 -169.84811020 2 -2 -1 
266 6 2 1.00000000 128.19999695 456.08282852 -399.65796947 -169.81428909 2 -2 -1 
267 6 1 -1.00000000 129.10000610 457.99327469 -401.87488270 -167.51300812 2 -2 -1 
268 6 1 -1.00000000 129.10000610 456.04639816 -403.90361309 -165.38401794 2 -2 -1 
269 6 2 1.00000000 128.19999695 459.19504929 -406.11984634 -164.03283310 2 -2 -1 
270 6 1 -1.00000000 129.10000610 462.28904724 -407.49783230 -162.35003281 2 -2 -1 
271 6 1 -1.00000000 129.10000610 465.22480011 -407.71429682 -159.92755127 2 -2 -1 
272 6 1 -1.00000000 129.10000610 468.84132767 -405.82366276 -159.08427048 2 -2 -1 
273 6 2 1.00000000 128.19999695 470.77352142 -404.31244659 -155.96616364 2 -2 -1 
274 6 1 -1.00000000 129.10000610 473.13738251 -401.70648384 -157.45619583 2 -2 -1 
275 6 1 -1.00000000 129.10000610 473.26372910 -398.04100418 -157.74513626 2 -2 -1 
276 6 2 1.00000000 128.19999695 470.70055389 -395.98476028 -156.34630966 2 -2 -1 
277 6 2 1.00000000 128.19999695 467.18962479 -396.24951553 -156.06413269 2 -2 -1 
278 6 2 1.00000000 128.19999695 463.62130356 -397.64716148 -155.17400742 2 -2 -1 
279 6 2 1.00000000 128.19999695 460.22133636 -397.64576530 -153.23024750 2 -2 -1 
280 6 2 1.00000000 128.19999695 459.20116043 -395.07801056 -151.06113052 2 -2 -1 
281 6 1 -1.00000000 129.10000610 462.47348022 -392.91645432 -151.43678665 2 -2 -1 
282 6 1 -1.00000000 129.10000610 463.27245331 -390.72524834 -154.21854782 2 -2 -1 
283 6 1 -1.00000000 129.10000610 460.06742477 -388.51492882 -155.15598297 2 -2 -1 
284 6 2 1.00000000 128.19999695 459.64805603 -384.96415710 -153.44282913 2 -2 -1 
285 6 2 1.00000000 128.19999695 458.19502640 -381.42525101 -154.09237671 2 -2 -1 
286 6 2 1.00000000 128.19999695 457.05892181 -377.74692535 -153.59416580 2 -2 -1 
287 6 1 -1.00000000 129.10000610 457.42838287 -375.20362854 -151.08498383 2 -2 -1 
288 6 2 1.00000000 128.19999695 458.83370590 -372.14151764 -149.76365662 2 -2 -1 
289 6 1 -1.00000000 129.10000610 459.80609894 -373.56953049 -145.98583603 2 -2 -1 
290 6 1 -1.00000000 129.10000610 461.19129181 -371.56027603 -143.18161011 2 -2 -1 
291 6 1 -1.00000000 129.10000610 464.59290314 -371.84992218 -141.83573914 2 -2 -1 
292 6 2 1.00000000 128.19999695 464.86102676 -372.07093430 -138.05247498 2 -2 -1 
293 6 1 -1.00000000 129.10000610 467.41793442 -370.43693161 -135.75105286 2 -2 -1 
294 6 2 1.00000000 128.19999695 466.12047577 -366.76449585 -134.77270508 2 -2 -1 
295 6 2 1.00000000 128.19999695 464.29998779 -366.29848480 -131.65163422 2 -2 -1 
296 6 2 1.00000000 128.19999695 462.04133224 -368.32266617 -129.31746674 2 -2 -1 
297 6 1 -1.00000000 129.10000610 460.93975067 -371.46951294 -130.59613037 2 -2 -1 
298 6 2 1.00000000 128.19999695 460.45063782 -375.23016739 -129.82159424 2 -2 -1 
299 6 1 -1.00000000 129.10000610 463.05980301 -376.88807678 -128.39247894 2 -2 -1 
300 6 2 1.00000000 128.19999695 463.93228531 -377.25730896 -124.41021729 2 -2 -1 
301 7 2 1.00000000 128.19999695 -35.83777237 -34.30424881 -961.14626312 0 0 -5 
302 7 1 -1.00000000 129.10000610 -38.02946472 -32.26522827 -958.74239349 0 0 -5 
303 7 2 1.00000000 128.19999695 -37.78022003 -28.61650276 -957.65718842 0 0 -5 
304 7 2 1.00000000 128.19999695 -40.46503067 -26.20165253 -958.03762817 0 0 -5 
305 7 2 1.00000000 128.19999695 -41.30237198 -24.11561012 -961.08412933 0 0 -5 
306 7 1 -1.00000000 129.10000610 -38.52725601 -21.99307060 -961.66605377 0 0 -5 
307 7 2 1.00000000 128.19999695 -35.65610123 -22.67436218 -963.85545349 0 0 -5 
308 7 1 -1.00000000 129.10000610 -32.83964157 -19.90802193 -963.56744385 0 0 -5 
309 7 1 -1.00000000 129.10000610 -29.04064560 -20.22913361 -964.44276428 0 0 -5 
310 7 1 -1.00000000 129.10000610 -26.03116417 -21.73613930 -963.53573608 0 0 -5 
311 7 2 1.00000000 128.19999695 -22.05600166 -22.51366043 -963.30521393 0 0 -5 
312 7 1 -1.00000000 129.10000610 -20.16803551 -22.23604584 -960.34163666 0 0 -5 
313 7 1 -1.00000000 129.10000610 -20.73003006 -20.03644943 -957.27466583 0 0 -5 
314 7 1 -1.00000000 129.10000610 -24.13850594 -18.70787811 -956.06877136 0 0 -5 
315 7 2 1.00000000 128.19999695 -27.18638420 -21.15497780 -956.46166229 0 0 -5 
316 7 2 1.00000000 128.19999695 -29.67970085 -22.58051109 -959.17995453 0 0 -5 
317 7 1 -1.00000000 129.10000610 -33.10179520 -21.66008568 -958.18901062 0 0 -5 
318 7 1 -1.00000000 129.10000610 -33.55332565 -17.80432701 -957.28659821 0 0 -5 
319 7 2 1.00000000 128.19999695 -32.72535324 -14.53172684 -956.18418121 0 0 -5 
320 7 1 -1.00000000 129.10000610 -31.38854027 -14.97105312 -952.28079987 0 0 -5 
321 7 1 -1.00000000 129.10000610 -31.01962090 -16.42060089 -948.43408203 0 0 -5 
322 7 1 -1.00000000 129.10000610 -30.72175980 -16.12130737 -945.15055847 0 0 -5 
323 7 2 1.00000000 128.19999695 -28.31996155 -14.72727585 -942.42900848 0 0 -5 
324 7 1 -1.00000000 129.10000610 -30.00611305 -11.43489265 -941.02042389 0 0 -5 
325 7 1 -1.00000000 129.10000610 -33.58067703 -10.08165550 -941.49191284 0 0 -5 
326 7 2 1.00000000 128.19999695 -34.31742096 -7.56519032 -938.33233643 0 0 -5 
327 7 2 1.00000000 128.19999695 -33.10966110 -9.47782040 -935.23603058 0 0 -5 
328 7 2 1.00000000 128.19999695 -30.03134727 -11.52576923 -933.83632660 0 0 -5 
329 7 2 1.00000000 128.19999695 -29.02905846 -10.55112648 -930.05570984 0 0 -4 
330 7 2 1.00000000 128.19999695 -28.57225609 -6.72431612 -929.01982880 0 0 -4 
331 7 1 -1.00000000 129.10000610 -30.90256310 -3.54034424 -928.84503937 0 0 -4 
332 7 1 -1.00000000 129.10000610 -34.81958771 -4.28113794 -929.18768311 0 0 -4 
333 7 1 -1.00000000 129.10000610 -36.86436081 -5.53091764 -926.23668671 0 0 -4 
334 7 2 1.00000000 128.19999695 -35.69327164 -6.00688028 -922.80413055 0 0 -4 
335 7 2 1.00000000 128.19999695 -32.34117126 -4.64221478 -921.34963226 0 0 -4 
336 7 2 1.00000000 128.19999695 -30.03203583 -7.90558386 -921.56811523 0 0 -4 
337 7 1 -1.00000000 129.10000610 -31.00512695 -11.08486462 -923.10903931 0 0 -4 
338 7 2 1.00000000 128.19999695 -33.92306137 -12.82844543 -924.88717651 0 0 -4 
339 7 1 -1.00000000 129.10000610 -37.23743057 -12.30590343 -922.52079773 0 0 -4 
340 7 1 -1.00000000 129.10000610 -34.86148453 -13.60885620 -919.80786896 0 0 -4 
341 7 1 -1.00000000 129.10000610 -35.88420105 -16.79561234 -917.44089508 0 0 -4 
342 7 2 1.00000000 128.19999695 -38.10568619 -17.61883545 -914.11775970 0 0 -4 
343 7 1 -1.00000000 129.10000610 -40.26808167 -16.88807678 -910.73703003 0 0 -4 
344 7 2 1.00000000 128.19999695 -39.56972122 -14.09578896 -908.20064545 0 0 -4 
345 7 2 1.00000000 128.19999695 -39.39099503 -15.17799473 -904.71248627 0 0 -4 
346 7 2 1.00000000 128.19999695 -40.90317154 -13.29631329 -901.69889069 0 0 -4 
347 7 1 -1.00000000 129.10000610 -41.54247665 -9.91472340 -903.45993805 0 0 -4 
348 7 2 1.00000000 128.19999695 -39.96438599 -6.95228672 -901.85488129 0 0 -4 
349 7 1 -1.00000000 129.10000610 -36.43971252 -7.23198175 -903.79248810 0 0 -4 
350 7 2 1.00000000 128.19999695 -33.41111374 -7.06845808 -901.97702026 0 0 -4 
351 8 2 1.00000000 128.19999695 -26.53635597 -37.53061295 612.18388748 0 0 3 
352 8 1 -1.00000000 129.10000610 -23.01077843 -39.31375122 610.99208832 0 0 3 
353 8 2 1.00000000 128.19999695 -19.32728767 -37.95787430 612.07439709 0 0 3 
354 8 2 1.00000000 128.19999695 -15.84524155 -37.50469208 611.29367733 0 0 3 
355 8 2 1.00000000 128.19999695 -12.98465538 -39.02485275 609.64826584 0 0 3 
356 8 1 -1.00000000 129.10000610 -8.83944798 -39.53218460 608.98242760 0 0 3 
357 8 2 1.00000000 128.19999695 -5.59815741 -41.59817505 607.87338257 0 0 3 
358 8 1 -1.00000000 129.10000610 -2.12463546 -41.40352249 609.57831573 0 0 3 
359 8 1 -1.00000000 129.10000610 0.74491489 -40.38611603 607.36949348 0 0 3 
360 8 1 -1.00000000 129.10000610 4.37189341 -39.72666168 606.22688961 0 0 3 
361 8 2 1.00000000 128.19999695 5.26195812 -40.44038391 602.61601257 0 0 3 
362 8 1 -1.00000000 129.10000610 8.44914913 -41.11314011 600.82576752 0 0 3 
363 8 1 -1.00000000 129.10000610 11.77505112 -40.51881409 602.11693001 0 0 3 
364 8 1 -1.00000000 129.10000610 11.53096771 -40.02331924 605.93493462 0 0 3 
365 8 2 1.00000000 128.19999695 12.54799080 -36.76869583 607.33804417 0 0 3 
366 8 2 1.00000000 128.19999695 15.54896069 -36.98245239 609.83777618 0 0 3 
367 8 1 -1.00000000 129.10000610 17.49459839 -39.53071594 611.42022610 0 0 3 
368 8 1 -1.00000000 129.10000610 18.13401604 -42.58830261 613.87009621 0 0 3 
369 8 2 1.00000000 128.19999695 21.17197037 -44.85946655 615.01898813 0 0 3 
370 8 1 -1.00000000 129.10000610 24.82163239 -43.88428879 616.33716869 0 0 3 