ITEM: TIMESTEP
42200000 
ITEM: NUMBER OF ATOMS 
25000 
ITEM: BOX BOUNDS pp pp pp 
-103.678017 103.678017 
-103.678017 103.678017 
-103.678017 103.678017 
ITEM: ATOMS id mol type q mass xu yu zu ix iy iz 
1 1 2 1.00000000 128.19999695 482.22326660 -116.94455719 -236.34546471 2 -1 -1 
2 1 1 -1.00000000 129.10000610 485.06919098 -115.45761108 -234.10827827 2 -1 -1 
3 1 2 1.00000000 128.19999695 484.67958832 -115.68681335 -230.16225052 2 -1 -1 
4 1 2 1.00000000 128.19999695 482.62462616 -118.43582153 -228.38463974 2 -1 -1 
5 1 2 1.00000000 128.19999695 481.64251709 -119.91759491 -224.90683556 2 -1 -1 
6 1 1 -1.00000000 129.10000610 478.86318970 -120.47322083 -222.56731415 2 -1 -1 
7 1 2 1.00000000 128.19999695 476.78533936 -123.54445648 -222.95057392 2 -1 -1 
8 1 1 -1.00000000 129.10000610 475.09862900 -126.65776062 -221.01976299 2 -1 -1 
9 1 1 -1.00000000 129.10000610 473.10963058 -129.10064697 -218.62182713 2 -1 -1 
10 1 1 -1.00000000 129.10000610 471.91707611 -127.15781403 -215.63086224 2 -1 -1 
11 1 2 1.00000000 128.19999695 473.09975052 -126.51997375 -212.08343697 2 -1 -1 
12 1 1 -1.00000000 129.10000610 476.77076340 -126.17063141 -211.14512801 2 -1 -1 
13 1 1 -1.00000000 129.10000610 479.19384766 -125.27987671 -213.87286234 2 -1 -1 
14 1 1 -1.00000000 129.10000610 483.02112579 -125.14905548 -212.51283360 2 -1 -1 
15 1 2 1.00000000 128.19999695 484.30650330 -121.91950989 -214.50187397 2 -1 -1 
16 1 2 1.00000000 128.19999695 487.17648315 -122.95320892 -216.70926189 2 -1 -1 
17 1 1 -1.00000000 129.10000610 490.40256500 -122.84274292 -218.30636215 2 -1 -1 
18 1 1 -1.00000000 129.10000610 492.10470581 -123.82588196 -221.64950657 2 -1 -1 
19 1 2 1.00000000 128.19999695 490.04450989 -124.05153656 -224.81072044 2 -1 -1 
20 1 1 -1.00000000 129.10000610 490.20426941 -126.38927460 -227.62242126 2 -1 -1 
21 1 1 -1.00000000 129.10000610 490.71334076 -129.90132904 -228.27242470 2 -1 -1 
22 1 1 -1.00000000 129.10000610 493.76003265 -131.75681305 -226.25484848 2 -1 -1 
23 1 2 1.00000000 128.19999695 496.65907288 -134.60343170 -226.29887772 2 -1 -1 
24 1 1 -1.00000000 129.10000610 497.87843323 -134.72405243 -222.63089752 2 -1 -1 
25 1 1 -1.00000000 129.10000610 498.46593475 -131.94834900 -220.15525913 2 -1 -1 
26 1 2 1.00000000 128.19999695 497.62583923 -128.32458496 -220.51265907 2 -1 -1 
27 1 2 1.00000000 128.19999695 498.57336426 -127.92658997 -224.34351349 2 -1 -1 
28 1 2 1.00000000 128.19999695 498.86001587 -124.42121124 -225.58629608 2 -1 -1 
29 1 2 1.00000000 128.19999695 495.67770386 -122.81288910 -226.92413139 2 -1 -1 
30 1 2 1.00000000 128.19999695 494.14759064 -120.52642822 -229.87859344 2 -1 -1 
31 1 1 -1.00000000 129.10000610 491.35453033 -118.40341949 -227.71966743 2 -1 -1 
32 1 1 -1.00000000 129.10000610 491.67922211 -114.95183563 -226.19113159 2 -1 -1 
33 1 1 -1.00000000 129.10000610 493.48213196 -111.55300140 -225.81649780 2 -1 -1 
34 1 2 1.00000000 128.19999695 492.70623016 -108.26166534 -224.49915504 2 -1 -1 
35 1 2 1.00000000 128.19999695 490.20005798 -106.28034210 -222.51550674 2 -1 -1 
36 1 2 1.00000000 128.19999695 490.09707642 -103.21823883 -220.66075134 2 0 -1 
37 1 1 -1.00000000 129.10000610 492.87609100 -101.21211243 -219.83635330 2 0 -1 
38 1 2 1.00000000 128.19999695 493.05001831 -97.70561981 -221.95723629 2 0 -1 
39 1 1 -1.00000000 129.10000610 496.00737762 -96.84547424 -224.80130386 2 0 -1 
40 1 1 -1.00000000 129.10000610 497.50704956 -98.34819031 -227.78486824 2 0 -1 
41 1 1 -1.00000000 129.10000610 499.79924774 -101.24226379 -228.89905930 2 0 -1 
42 1 2 1.00000000 128.19999695 499.28694153 -104.95201111 -230.39963722 2 -1 -1 
43 1 1 -1.00000000 129.10000610 496.17646027 -106.97627258 -230.90928459 2 -1 -1 
44 1 2 1.00000000 128.19999695 493.60250854 -104.41749573 -229.19880104 2 -1 -1 
45 1 2 1.00000000 128.19999695 490.92040253 -101.94880676 -230.97698975 2 0 -1 
46 1 2 1.00000000 128.19999695 491.50519562 -98.39311218 -232.21497345 2 0 -1 
47 1 1 -1.00000000 129.10000610 491.68155670 -94.66968536 -232.78948212 2 0 -1 
48 1 2 1.00000000 128.19999695 491.69095612 -91.68243408 -234.65251350 2 0 -1 
49 1 1 -1.00000000 129.10000610 495.33275604 -91.37097168 -236.60306168 2 0 -1 
50 1 2 1.00000000 128.19999695 497.86417389 -88.67203522 -235.83969307 2 0 -1 
51 2 2 1.00000000 128.19999695 409.35982561 415.01753002 -359.35976028 2 2 -2 
52 2 1 -1.00000000 129.10000610 409.36445570 411.36686277 -360.76190186 2 2 -2 
53 2 2 1.00000000 128.19999695 411.03367805 408.08663988 -359.66387177 2 2 -2 
54 2 2 1.00000000 128.19999695 410.65658474 407.12711668 -356.04673004 2 2 -2 
55 2 2 1.00000000 128.19999695 411.63837337 408.01407051 -352.31636429 2 2 -2 
56 2 1 -1.00000000 129.10000610 414.81893645 405.81231976 -351.62045670 2 2 -2 
57 2 2 1.00000000 128.19999695 417.28441286 402.79705238 -351.63127899 2 2 -2 
58 2 1 -1.00000000 129.10000610 420.48900938 404.29186440 -349.79682922 2 2 -2 
59 2 1 -1.00000000 129.10000610 423.19706631 405.80800915 -351.90444946 2 2 -2 
60 2 1 -1.00000000 129.10000610 424.97430229 402.42053986 -353.47903824 2 2 -2 
61 2 2 1.00000000 128.19999695 428.06539822 402.70618343 -351.25170517 2 2 -2 
62 2 1 -1.00000000 129.10000610 430.16757011 405.27754211 -349.28316498 2 2 -2 
63 2 1 -1.00000000 129.10000610 430.96479607 408.87941933 -348.31306458 2 2 -2 
64 2 1 -1.00000000 129.10000610 430.18732166 412.27625370 -346.56866455 2 2 -2 
65 2 2 1.00000000 128.19999695 428.38641262 415.10650882 -344.25146484 2 2 -2 
66 2 2 1.00000000 128.19999695 427.03274345 414.37278134 -340.67990875 2 2 -2 
67 2 1 -1.00000000 129.10000610 426.93585110 410.90012050 -339.61448669 2 2 -2 
68 2 1 -1.00000000 129.10000610 430.08791351 409.26543474 -340.95099640 2 2 -2 
69 2 2 1.00000000 128.19999695 433.11987114 406.94279385 -340.58045959 2 2 -2 
70 2 1 -1.00000000 129.10000610 436.22303391 405.30434322 -339.36980438 2 2 -2 
71 2 1 -1.00000000 129.10000610 439.70893860 404.03444481 -340.19745636 2 2 -2 
72 2 1 -1.00000000 129.10000610 442.59473228 405.31870937 -338.03809357 2 2 -2 
73 2 2 1.00000000 128.19999695 441.98999405 404.68599033 -334.41900635 2 2 -2 
74 2 1 -1.00000000 129.10000610 441.54749489 401.17911625 -332.91566467 2 2 -2 
75 2 1 -1.00000000 129.10000610 443.19123650 398.49901581 -335.11484528 2 2 -2 
76 2 2 1.00000000 128.19999695 444.94507217 395.54434967 -333.72463226 2 2 -2 
77 2 2 1.00000000 128.19999695 445.49765778 392.53264618 -331.73114014 2 2 -2 
78 2 2 1.00000000 128.19999695 446.57785606 390.25899696 -329.01012421 2 2 -2 
79 2 2 1.00000000 128.19999695 444.79049873 386.99777603 -328.88240051 2 2 -2 
80 2 2 1.00000000 128.19999695 440.98437500 388.08670044 -328.54283142 2 2 -2 
81 2 1 -1.00000000 129.10000610 437.05276871 387.88169861 -328.15859985 2 2 -2 
82 2 1 -1.00000000 129.10000610 436.16511345 389.25416183 -324.55970001 2 2 -2 
83 2 1 -1.00000000 129.10000610 432.39117622 388.94746399 -323.64164734 2 2 -2 
84 2 2 1.00000000 128.19999695 428.76994038 388.21312141 -324.98235321 2 2 -2 
85 2 2 1.00000000 128.19999695 425.55642033 389.91333961 -325.84476471 2 2 -2 
86 2 2 1.00000000 128.19999695 422.72795105 387.31538773 -324.91840363 2 2 -2 
87 2 1 -1.00000000 129.10000610 422.11579609 387.04594803 -321.42489624 2 2 -2 
88 2 2 1.00000000 128.19999695 424.62797165 386.99349785 -318.14811707 2 2 -2 
89 2 1 -1.00000000 129.10000610 428.24948311 388.44579697 -318.37063599 2 2 -2 
90 2 1 -1.00000000 129.10000610 428.42403221 392.15625954 -316.83650970 2 2 -2 
91 2 1 -1.00000000 129.10000610 431.94987869 393.42126846 -316.24500275 2 2 -2 
92 2 2 1.00000000 128.19999695 435.50691414 392.79028511 -316.65760803 2 2 -2 
93 2 1 -1.00000000 129.10000610 436.67377472 396.51265144 -316.64745331 2 2 -2 
94 2 2 1.00000000 128.19999695 436.95942879 399.67603874 -318.90176392 2 2 -2 
95 2 2 1.00000000 128.19999695 433.83794212 398.66852188 -321.23836517 2 2 -2 
96 2 2 1.00000000 128.19999695 435.40260696 398.63177109 -324.73482513 2 2 -2 
97 2 1 -1.00000000 129.10000610 435.71346092 398.00074387 -328.41261292 2 2 -2 
98 2 2 1.00000000 128.19999695 436.04699898 396.89070511 -331.75929260 2 2 -2 
99 2 1 -1.00000000 129.10000610 432.23422813 396.58525848 -332.76598358 2 2 -2 
100 2 2 1.00000000 128.19999695 429.42591095 394.03098679 -332.74501038 2 2 -2 
101 3 2 1.00000000 128.19999695 342.27770233 -72.22256470 64.38132477 2 0 0 
102 3 1 -1.00000000 129.10000610 342.22412872 -68.99028778 61.74115372 2 0 0 
103 3 2 1.00000000 128.19999695 339.69512177 -68.60436249 59.32494354 2 0 0 
104 3 2 1.00000000 128.19999695 338.36076355 -68.34540558 55.94858551 2 0 0 
105 3 2 1.00000000 128.19999695 336.33862305 -69.32251740 52.90969467 2 0 0 
106 3 1 -1.00000000 129.10000610 337.64682007 -68.27233124 49.22808456 2 0 0 
107 3 2 1.00000000 128.19999695 341.16881561 -68.16578674 47.29251862 2 0 0 
108 3 1 -1.00000000 129.10000610 341.92488861 -64.37807465 46.63764572 2 0 0 
109 3 1 -1.00000000 129.10000610 341.31340027 -61.21840668 44.43540955 2 0 0 
110 3 1 -1.00000000 129.10000610 343.81695557 -58.39110565 45.21339417 2 0 0 
111 3 2 1.00000000 128.19999695 344.39122772 -55.42054749 47.11671448 2 0 0 
112 3 1 -1.00000000 129.10000610 343.82658386 -52.45691681 49.62650681 2 0 0 
113 3 1 -1.00000000 129.10000610 343.23397064 -51.12330627 53.00389481 2 0 0 
114 3 1 -1.00000000 129.10000610 339.47879791 -50.68310928 52.97936630 2 0 0 
115 3 2 1.00000000 128.19999695 337.55380249 -53.75616455 51.54067230 2 0 0 
116 3 2 1.00000000 128.19999695 334.80984497 -55.20366669 52.92767715 2 0 0 
117 3 1 -1.00000000 129.10000610 333.77327728 -58.72617340 54.38989258 2 0 0 
118 3 1 -1.00000000 129.10000610 336.22093964 -61.55817413 54.80629730 2 0 0 
119 3 2 1.00000000 128.19999695 337.45243073 -61.30722809 58.35427856 2 0 0 
120 3 1 -1.00000000 129.10000610 335.45355225 -63.48788071 60.10081863 2 0 0 
121 3 1 -1.00000000 129.10000610 334.23274994 -62.33683777 63.49333954 2 0 0 
122 3 1 -1.00000000 129.10000610 330.87582397 -63.90211105 64.07329559 2 0 0 
123 3 2 1.00000000 128.19999695 328.73845673 -63.47993469 66.67920685 2 0 0 
124 3 1 -1.00000000 129.10000610 326.62047577 -62.86117554 69.41242218 2 0 0 
125 3 1 -1.00000000 129.10000610 323.35688019 -64.54897308 70.51235199 2 0 0 
126 3 2 1.00000000 128.19999695 321.64660645 -66.30516815 73.98271942 2 0 0 
127 3 2 1.00000000 128.19999695 324.37911224 -68.36615753 75.38017273 2 0 0 
128 3 2 1.00000000 128.19999695 327.47753906 -70.93140411 75.78026581 2 0 0 
129 3 2 1.00000000 128.19999695 328.67897797 -74.36025238 77.14197540 2 0 0 
130 3 2 1.00000000 128.19999695 328.17276764 -74.46342468 80.91124725 2 0 0 
131 3 1 -1.00000000 129.10000610 325.35605621 -75.99137878 82.58529663 2 0 0 
132 3 1 -1.00000000 129.10000610 322.91791534 -77.93301392 80.20810699 2 0 0 
133 3 1 -1.00000000 129.10000610 320.58557892 -75.73559570 78.38082886 2 0 0 
134 3 2 1.00000000 128.19999695 317.72635651 -74.00033569 80.16694641 2 0 0 
135 3 2 1.00000000 128.19999695 316.31539154 -73.46349335 83.40904236 2 0 0 
136 3 2 1.00000000 128.19999695 312.58460999 -71.88028717 84.63005066 2 0 0 
137 3 1 -1.00000000 129.10000610 310.84483337 -72.63735199 81.35472870 1 0 0 
138 3 2 1.00000000 128.19999695 311.13308716 -69.86791992 78.84207916 2 0 0 
139 3 1 -1.00000000 129.10000610 313.16957092 -69.99055481 75.68281555 2 0 0 
140 3 1 -1.00000000 129.10000610 313.11214447 -71.62042236 72.13108063 2 0 0 
141 3 1 -1.00000000 129.10000610 316.30915070 -70.17456818 70.26163483 2 0 0 
142 3 2 1.00000000 128.19999695 316.73413849 -66.78900146 68.80949402 2 0 0 
143 3 1 -1.00000000 129.10000610 313.34180450 -65.37928009 67.25409698 2 0 0 
144 3 2 1.00000000 128.19999695 310.10940552 -66.82717896 65.54830933 1 0 0 
145 3 2 1.00000000 128.19999695 309.42302704 -70.65730286 66.44232941 1 0 0 
146 3 2 1.00000000 128.19999695 307.94458771 -74.00382233 66.91014862 1 0 0 
147 3 1 -1.00000000 129.10000610 308.79023743 -75.84933472 63.44894409 1 0 0 
148 3 2 1.00000000 128.19999695 311.68689728 -77.71671295 64.64377594 2 0 0 
149 3 1 -1.00000000 129.10000610 310.43378448 -80.91908264 66.82259369 1 0 0 
150 3 2 1.00000000 128.19999695 307.41613007 -80.61614990 69.25633240 1 0 0 
151 4 2 1.00000000 128.19999695 -308.92435455 444.25053215 64.89290619 -1 2 0 
152 4 1 -1.00000000 129.10000610 -310.09026337 443.24367714 61.33288193 -1 2 0 
153 4 2 1.00000000 128.19999695 -310.77532959 439.43001938 61.17181015 -1 2 0 
154 4 2 1.00000000 128.19999695 -309.86651611 437.26392555 58.21130753 -1 2 0 
155 4 2 1.00000000 128.19999695 -308.46641541 433.98238945 55.83219147 -1 2 0 
156 4 1 -1.00000000 129.10000610 -305.29515076 432.21012115 54.96383286 -1 2 0 
157 4 2 1.00000000 128.19999695 -305.73602295 428.27574825 55.06062698 -1 2 0 
158 4 1 -1.00000000 129.10000610 -303.33633423 425.52432632 55.89366150 -1 2 0 
159 4 1 -1.00000000 129.10000610 -305.16313171 422.51527309 54.94316101 -1 2 0 
160 4 1 -1.00000000 129.10000610 -306.12464142 421.00263309 51.31745529 -1 2 0 
161 4 2 1.00000000 128.19999695 -303.35962677 421.40875101 48.87884903 -1 2 0 
162 4 1 -1.00000000 129.10000610 -301.41192627 423.30535412 45.96484375 -1 2 0 
163 4 1 -1.00000000 129.10000610 -303.84506989 423.34494591 43.38583374 -1 2 0 
164 4 1 -1.00000000 129.10000610 -307.31233978 421.89678431 42.38618469 -1 2 0 
165 4 2 1.00000000 128.19999695 -310.90152740 422.11584330 41.88394928 -1 2 0 
166 4 2 1.00000000 128.19999695 -313.17337036 425.07547855 42.39936447 -2 2 0 
167 4 1 -1.00000000 129.10000610 -315.62400818 427.76380634 42.27404404 -2 2 0 
168 4 1 -1.00000000 129.10000610 -317.03411102 431.19945145 42.52739334 -2 2 0 
169 4 2 1.00000000 128.19999695 -316.10398102 433.97796440 45.20497131 -2 2 0 
170 4 1 -1.00000000 129.10000610 -314.32010651 437.44378471 44.78672791 -2 2 0 
171 4 1 -1.00000000 129.10000610 -311.15551758 438.51992035 42.79949951 -2 2 0 
172 4 1 -1.00000000 129.10000610 -310.51085663 439.42675400 39.00548172 -1 2 0 
173 4 2 1.00000000 128.19999695 -313.05064392 440.70274734 36.91891098 -2 2 0 
174 4 1 -1.00000000 129.10000610 -314.45568848 444.36145210 37.20513535 -2 2 0 
175 4 1 -1.00000000 129.10000610 -312.42846680 447.40071106 39.21870804 -2 2 0 
176 4 2 1.00000000 128.19999695 -310.51600647 447.13881683 42.48092651 -1 2 0 
177 4 2 1.00000000 128.19999695 -307.21453094 446.20075798 44.25063324 -1 2 0 
178 4 2 1.00000000 128.19999695 -304.70285797 444.81382561 46.47163010 -1 2 0 
179 4 2 1.00000000 128.19999695 -301.10668945 445.89947891 47.37823105 -1 2 0 
180 4 2 1.00000000 128.19999695 -301.49496460 448.78041840 49.68254852 -1 2 0 
181 4 1 -1.00000000 129.10000610 -303.54653168 451.44994736 47.86148453 -1 2 0 
182 4 1 -1.00000000 129.10000610 -306.79253387 453.34003448 49.55507660 -1 2 0 
183 4 1 -1.00000000 129.10000610 -310.08416748 452.09494019 50.32622147 -1 2 0 
184 4 2 1.00000000 128.19999695 -310.68766022 452.11754990 54.06304932 -1 2 0 
185 4 2 1.00000000 128.19999695 -311.14888000 448.68330002 55.85084915 -2 2 0 
186 4 2 1.00000000 128.19999695 -313.42512512 445.74168587 55.96667099 -2 2 0 
187 4 1 -1.00000000 129.10000610 -313.47203827 442.35658073 55.43947601 -2 2 0 
188 4 2 1.00000000 128.19999695 -315.79040527 439.38255501 56.59752274 -2 2 0 
189 4 1 -1.00000000 129.10000610 -319.11929321 441.30207634 57.02888107 -2 2 0 
190 4 1 -1.00000000 129.10000610 -321.00856018 443.24149895 54.56347656 -2 2 0 
191 4 1 -1.00000000 129.10000610 -322.84460449 441.29310226 51.88437653 -2 2 0 
192 4 2 1.00000000 128.19999695 -322.51363373 438.36253738 49.50118256 -2 2 0 
193 4 1 -1.00000000 129.10000610 -321.98392487 434.70975304 48.41252518 -2 2 0 
194 4 2 1.00000000 128.19999695 -322.96511841 431.19639587 49.79135513 -2 2 0 
195 4 2 1.00000000 128.19999695 -320.61298370 428.60571098 51.36047745 -2 2 0 
196 4 2 1.00000000 128.19999695 -322.79945374 426.05943394 53.60540771 -2 2 0 
197 4 1 -1.00000000 129.10000610 -325.40684509 424.08226395 52.04817581 -2 2 0 
198 4 2 1.00000000 128.19999695 -326.80195618 421.46336603 49.90192795 -2 2 0 
199 4 1 -1.00000000 129.10000610 -329.25193024 418.54531431 49.36475754 -2 2 0 
200 4 2 1.00000000 128.19999695 -333.01627350 417.27093816 49.46093750 -2 2 0 
201 5 2 1.00000000 128.19999695 -336.01468658 -279.02274323 -229.18709755 -2 -1 -1 
202 5 1 -1.00000000 129.10000610 -335.41333008 -280.54929352 -232.27210808 -2 -1 -1 
203 5 2 1.00000000 128.19999695 -335.35681915 -282.26895142 -235.74917984 -2 -1 -1 
204 5 2 1.00000000 128.19999695 -336.17665100 -282.63880157 -239.25165367 -2 -1 -1 
205 5 2 1.00000000 128.19999695 -333.73067474 -284.64973450 -241.51539993 -2 -1 -1 
206 5 1 -1.00000000 129.10000610 -330.82906342 -282.48657990 -242.34857559 -2 -1 -1 
207 5 2 1.00000000 128.19999695 -328.24477386 -279.87015533 -243.65691376 -2 -1 -1 
208 5 1 -1.00000000 129.10000610 -325.38525391 -281.40038300 -245.86348343 -2 -1 -1 
209 5 1 -1.00000000 129.10000610 -324.80360413 -284.79385376 -246.99131775 -2 -1 -1 
210 5 1 -1.00000000 129.10000610 -326.39306641 -285.11640167 -250.12184525 -2 -1 -1 
211 5 2 1.00000000 128.19999695 -327.54709625 -282.83868408 -252.82827759 -2 -1 -1 
212 5 1 -1.00000000 129.10000610 -328.20392609 -283.74536896 -256.48657990 -2 -1 -1 
213 5 1 -1.00000000 129.10000610 -329.90954590 -281.21800995 -258.71377945 -2 -1 -1 
214 5 1 -1.00000000 129.10000610 -331.15663147 -279.38642883 -261.90530396 -2 -1 -1 
215 5 2 1.00000000 128.19999695 -332.89598846 -280.93890381 -265.41985321 -2 -1 -1 
216 5 2 1.00000000 128.19999695 -332.46508026 -280.48653412 -269.35483170 -2 -1 -1 
217 5 1 -1.00000000 129.10000610 -334.93007660 -283.17070007 -270.94262314 -2 -1 -1 
218 5 1 -1.00000000 129.10000610 -334.64289856 -284.17793274 -274.51108551 -2 -1 -1 
219 5 2 1.00000000 128.19999695 -332.81959534 -281.67947388 -276.66136169 -2 -1 -1 
220 5 1 -1.00000000 129.10000610 -329.25397491 -281.29249573 -276.57165527 -2 -1 -1 
221 5 1 -1.00000000 129.10000610 -326.66213226 -281.71273041 -274.09257507 -2 -1 -1 
222 5 1 -1.00000000 129.10000610 -326.10041046 -285.26926422 -271.73695374 -2 -1 -1 
223 5 2 1.00000000 128.19999695 -326.99385834 -289.02917480 -271.79823303 -2 -1 -1 
224 5 1 -1.00000000 129.10000610 -326.13157654 -292.43299103 -270.55393219 -2 -1 -1 
225 5 1 -1.00000000 129.10000610 -326.21962738 -295.90626526 -271.29501343 -2 -1 -1 
226 5 2 1.00000000 128.19999695 -329.58571625 -297.66330719 -272.74829865 -2 -1 -1 
227 5 2 1.00000000 128.19999695 -327.87651062 -300.93318176 -273.44336700 -2 -1 -1 
228 5 2 1.00000000 128.19999695 -330.49192810 -303.69149017 -274.28443146 -2 -1 -1 
229 5 2 1.00000000 128.19999695 -330.99196625 -306.30645752 -276.71736145 -2 -1 -1 
230 5 2 1.00000000 128.19999695 -330.29674530 -307.15476227 -280.20144653 -2 -1 -1 
231 5 1 -1.00000000 129.10000610 -329.87752533 -307.51842499 -283.91554260 -2 -1 -1 
232 5 1 -1.00000000 129.10000610 -333.33940887 -307.78559875 -285.19116211 -2 -1 -1 
233 5 1 -1.00000000 129.10000610 -336.72584534 -309.56050110 -285.36083221 -2 -1 -1 
234 5 2 1.00000000 128.19999695 -339.46979523 -309.58730316 -288.01477814 -2 -1 -1 
235 5 2 1.00000000 128.19999695 -340.15328979 -306.25728607 -289.17640686 -2 -1 -1 
236 5 2 1.00000000 128.19999695 -339.29521179 -302.85028839 -289.96542358 -2 -1 -1 
237 5 1 -1.00000000 129.10000610 -340.71601105 -299.20515442 -290.08268738 -2 -1 -1 
238 5 2 1.00000000 128.19999695 -339.14891815 -295.66941071 -288.78727722 -2 -1 -1 
239 5 1 -1.00000000 129.10000610 -336.33025360 -295.29700470 -291.38768005 -2 -1 -1 
240 5 1 -1.00000000 129.10000610 -334.59407043 -296.86802673 -293.94662476 -2 -1 -1 
241 5 1 -1.00000000 129.10000610 -333.43353271 -298.71943665 -296.98770142 -2 -1 -1 
242 5 2 1.00000000 128.19999695 -330.13763428 -300.17873383 -298.43411255 -2 -1 -1 
243 5 1 -1.00000000 129.10000610 -327.98535919 -299.82879639 -295.17378235 -2 -1 -1 
244 5 2 1.00000000 128.19999695 -328.49969482 -300.17913055 -291.44723511 -2 -1 -1 
245 5 2 1.00000000 128.19999695 -329.06486511 -296.38722992 -290.42193604 -2 -1 -1 
246 5 2 1.00000000 128.19999695 -328.37561798 -292.63666534 -291.01857758 -2 -1 -1 
247 5 1 -1.00000000 129.10000610 -328.32821655 -291.39901733 -294.45769501 -2 -1 -1 
248 5 2 1.00000000 128.19999695 -326.85422516 -292.62477875 -297.58924103 -2 -1 -1 
249 5 1 -1.00000000 129.10000610 -329.95845795 -293.89519501 -299.11494446 -2 -1 -1 
250 5 2 1.00000000 128.19999695 -333.42932129 -293.62879181 -300.93716431 -2 -1 -1 
251 6 2 1.00000000 128.19999695 453.75130844 -369.84866333 -158.84092331 2 -2 -1 
252 6 1 -1.00000000 129.10000610 452.81918716 -372.89812469 -161.06292343 2 -2 -1 
253 6 2 1.00000000 128.19999695 451.99085236 -377.12672424 -161.72723007 2 -2 -1 
254 6 2 1.00000000 128.19999695 448.59269714 -376.67481995 -159.65468216 2 -2 -1 
255 6 2 1.00000000 128.19999695 446.27626610 -374.12019348 -158.34304810 2 -2 -1 
256 6 1 -1.00000000 129.10000610 444.92556763 -370.49932098 -157.65484619 2 -2 -1 
257 6 2 1.00000000 128.19999695 445.99174118 -367.15667725 -156.09854507 2 -2 -1 
258 6 1 -1.00000000 129.10000610 446.10276794 -367.60309219 -152.55091476 2 -2 -1 
259 6 1 -1.00000000 129.10000610 445.77691460 -370.80887222 -150.55579376 2 -2 -1 
260 6 1 -1.00000000 129.10000610 446.84188461 -373.85954666 -148.56742096 2 -2 -1 
261 6 2 1.00000000 128.19999695 444.82313728 -377.11815643 -148.29050446 2 -2 -1 
262 6 1 -1.00000000 129.10000610 447.09276962 -379.75371933 -149.91843033 2 -2 -1 
263 6 1 -1.00000000 129.10000610 449.60701752 -382.42202377 -150.85564804 2 -2 -1 
264 6 1 -1.00000000 129.10000610 450.59706116 -385.82157326 -151.93898392 2 -2 -1 
265 6 2 1.00000000 128.19999695 451.29563141 -385.22929192 -155.79782104 2 -2 -1 
266 6 2 1.00000000 128.19999695 454.71386719 -386.69926453 -156.17397690 2 -2 -1 
267 6 1 -1.00000000 129.10000610 454.19675446 -390.18430519 -154.96900558 2 -2 -1 
268 6 1 -1.00000000 129.10000610 455.40624237 -390.55726051 -151.35184860 2 -2 -1 
269 6 2 1.00000000 128.19999695 455.45315933 -394.64786148 -151.73197556 2 -2 -1 
270 6 1 -1.00000000 129.10000610 454.21057510 -395.37446976 -148.22751236 2 -2 -1 
271 6 1 -1.00000000 129.10000610 451.44448471 -396.80618668 -145.43407440 2 -2 -1 
272 6 1 -1.00000000 129.10000610 448.57209396 -399.45236206 -145.52694321 2 -2 -1 
273 6 2 1.00000000 128.19999695 448.38378906 -402.79069042 -146.57934189 2 -2 -1 
274 6 1 -1.00000000 129.10000610 450.31699753 -405.90526009 -145.70997620 2 -2 -1 
275 6 1 -1.00000000 129.10000610 452.77374268 -406.18098450 -143.00942230 2 -2 -1 
276 6 2 1.00000000 128.19999695 454.34614944 -403.25470638 -141.19829559 2 -2 -1 
277 6 2 1.00000000 128.19999695 453.44134521 -400.72448254 -138.73342896 2 -2 -1 
278 6 2 1.00000000 128.19999695 452.05580902 -399.38330746 -135.54723358 2 -2 -1 
279 6 2 1.00000000 128.19999695 452.18318176 -400.36995220 -131.68353271 2 -2 -1 
280 6 2 1.00000000 128.19999695 449.14288712 -403.22250748 -131.38828278 2 -2 -1 
281 6 1 -1.00000000 129.10000610 446.24298668 -401.26591396 -131.08675385 2 -2 -1 
282 6 1 -1.00000000 129.10000610 446.06075668 -399.57578564 -127.54422760 2 -2 -1 
283 6 1 -1.00000000 129.10000610 448.49695206 -401.97059536 -125.49641418 2 -2 -1 
284 6 2 1.00000000 128.19999695 452.03362656 -404.42897797 -125.39413452 2 -2 -1 
285 6 2 1.00000000 128.19999695 455.54911041 -403.53451729 -126.00039673 2 -2 -1 
286 6 2 1.00000000 128.19999695 457.84360886 -400.45210648 -124.31594849 2 -2 -1 
287 6 1 -1.00000000 129.10000610 459.72413254 -397.17300224 -123.53980255 2 -2 -1 
288 6 2 1.00000000 128.19999695 460.80379105 -394.33857918 -125.31531525 2 -2 -1 
289 6 1 -1.00000000 129.10000610 458.40913391 -395.27202415 -128.60987091 2 -2 -1 
290 6 1 -1.00000000 129.10000610 458.05776596 -392.07076836 -130.78451538 2 -2 -1 
291 6 1 -1.00000000 129.10000610 459.61003113 -389.28216362 -128.81430817 2 -2 -1 
292 6 2 1.00000000 128.19999695 462.13138962 -386.45607948 -130.25611877 2 -2 -1 
293 6 1 -1.00000000 129.10000610 463.01078033 -383.89123917 -127.58467865 2 -2 -1 
294 6 2 1.00000000 128.19999695 464.51120377 -382.14805222 -124.75861359 2 -2 -1 
295 6 2 1.00000000 128.19999695 462.32378006 -380.46493530 -122.48756409 2 -2 -1 
296 6 2 1.00000000 128.19999695 459.42676544 -379.61027908 -120.25776672 2 -2 -1 
297 6 1 -1.00000000 129.10000610 459.91598892 -378.60042191 -116.75626373 2 -2 -1 
298 6 2 1.00000000 128.19999695 462.96394348 -379.69904327 -115.35716248 2 -2 -1 
299 6 1 -1.00000000 129.10000610 463.01888275 -380.73654175 -111.58395386 2 -2 -1 
300 6 2 1.00000000 128.19999695 460.72882843 -383.90123367 -110.54627991 2 -2 -1 
301 7 2 1.00000000 128.19999695 -52.54882050 -18.70473099 -923.34035492 0 0 -4 
302 7 1 -1.00000000 129.10000610 -51.21440506 -20.66984177 -926.57078552 0 0 -4 
303 7 2 1.00000000 128.19999695 -47.58565521 -19.64299202 -925.61639404 0 0 -4 
304 7 2 1.00000000 128.19999695 -43.99495316 -20.02994919 -924.58126831 0 0 -4 
305 7 2 1.00000000 128.19999695 -42.14569855 -19.85498619 -927.89954376 0 0 -4 
306 7 1 -1.00000000 129.10000610 -43.04872131 -18.20292282 -931.10576630 0 0 -4 
307 7 2 1.00000000 128.19999695 -41.19063187 -16.67244148 -934.34259796 0 0 -5 
308 7 1 -1.00000000 129.10000610 -38.06274414 -18.71618462 -933.29680634 0 0 -5 
309 7 1 -1.00000000 129.10000610 -35.02348328 -20.63514328 -934.50289917 0 0 -5 
310 7 1 -1.00000000 129.10000610 -36.06488800 -24.27037048 -933.89745331 0 0 -5 
311 7 2 1.00000000 128.19999695 -38.09366226 -26.65471458 -935.45123291 0 0 -5 
312 7 1 -1.00000000 129.10000610 -41.47068787 -26.46798897 -933.77353668 0 0 -5 
313 7 1 -1.00000000 129.10000610 -43.53329086 -23.36868477 -934.78913879 0 0 -5 
314 7 1 -1.00000000 129.10000610 -46.98721695 -23.98306084 -933.17743683 0 0 -5 
315 7 2 1.00000000 128.19999695 -50.17736435 -22.23514938 -932.63668823 0 0 -4 
316 7 2 1.00000000 128.19999695 -54.10222626 -22.17409325 -932.02196503 0 0 -4 
317 7 1 -1.00000000 129.10000610 -56.69869232 -20.16015244 -930.21302032 0 0 -4 
318 7 1 -1.00000000 129.10000610 -55.66659164 -16.87221527 -928.59096527 0 0 -4 
319 7 2 1.00000000 128.19999695 -53.55769348 -14.34940434 -929.99481964 0 0 -4 
320 7 1 -1.00000000 129.10000610 -50.54268265 -15.67921162 -931.88070679 0 0 -4 
321 7 1 -1.00000000 129.10000610 -50.40114594 -14.84685707 -935.64604187 0 0 -5 
322 7 1 -1.00000000 129.10000610 -48.72485733 -11.21784306 -935.61527252 0 0 -5 
323 7 2 1.00000000 128.19999695 -47.02762222 -8.30559731 -936.97086334 0 0 -5 
324 7 1 -1.00000000 129.10000610 -48.95102692 -5.36880636 -938.32289886 0 0 -5 
325 7 1 -1.00000000 129.10000610 -47.52751923 -3.36439753 -941.29604340 0 0 -5 
326 7 2 1.00000000 128.19999695 -44.46149063 -1.15532029 -940.52307892 0 0 -5 
327 7 2 1.00000000 128.19999695 -44.82424927 0.10228780 -937.01529694 0 0 -5 
328 7 2 1.00000000 128.19999695 -45.38685226 1.38516212 -933.33721924 0 0 -5 
329 7 2 1.00000000 128.19999695 -42.43162155 -0.37772021 -931.19866943 0 0 -4 
330 7 2 1.00000000 128.19999695 -38.60750580 -0.22443502 -931.52972412 0 0 -4 
331 7 1 -1.00000000 129.10000610 -37.25695038 2.00977731 -934.29784393 0 0 -5 
332 7 1 -1.00000000 129.10000610 -34.05980682 1.44579613 -935.55283356 0 0 -5 
333 7 1 -1.00000000 129.10000610 -33.49912262 -2.11738729 -935.43209076 0 0 -5 
334 7 2 1.00000000 128.19999695 -31.42482948 -5.11415958 -935.21590424 0 0 -5 
335 7 2 1.00000000 128.19999695 -28.25505638 -4.21770096 -933.82897186 0 0 -5 
336 7 2 1.00000000 128.19999695 -28.97151184 -1.25379419 -931.06563568 0 0 -4 
337 7 1 -1.00000000 129.10000610 -25.75000000 -1.40934265 -929.07418060 0 0 -4 
338 7 2 1.00000000 128.19999695 -24.18531036 -0.30214703 -925.71540833 0 0 -4 
339 7 1 -1.00000000 129.10000610 -24.14155006 -1.80488443 -922.28120422 0 0 -4 
340 7 1 -1.00000000 129.10000610 -26.89636612 -2.73918533 -919.70906830 0 0 -4 
341 7 1 -1.00000000 129.10000610 -27.71320534 -6.33949709 -921.04233551 0 0 -4 
342 7 2 1.00000000 128.19999695 -29.47784424 -8.45385551 -923.44331360 0 0 -4 
343 7 1 -1.00000000 129.10000610 -30.99633789 -11.80000019 -925.22014618 0 0 -4 
344 7 2 1.00000000 128.19999695 -30.51922607 -14.23500919 -928.52774048 0 0 -4 
345 7 2 1.00000000 128.19999695 -27.69079208 -13.42365646 -930.98638916 0 0 -4 
346 7 2 1.00000000 128.19999695 -27.56104660 -16.37671852 -933.37191772 0 0 -5 
347 7 1 -1.00000000 129.10000610 -26.60455322 -19.94480133 -934.19579315 0 0 -5 
348 7 2 1.00000000 128.19999695 -27.18064308 -23.53357124 -932.10797119 0 0 -4 
349 7 1 -1.00000000 129.10000610 -28.87127686 -26.67385674 -932.41839600 0 0 -4 
350 7 2 1.00000000 128.19999695 -30.21525383 -29.97076225 -931.46305084 0 0 -4 
351 8 2 1.00000000 128.19999695 -14.28687096 -26.29110336 583.26001740 0 0 3 
352 8 1 -1.00000000 129.10000610 -11.27203083 -27.79444885 584.61824799 0 0 3 
353 8 2 1.00000000 128.19999695 -8.23913383 -27.86534309 587.03324127 0 0 3 
354 8 2 1.00000000 128.19999695 -7.37361383 -28.96305656 590.34049034 0 0 3 
355 8 2 1.00000000 128.19999695 -6.21322727 -31.92585182 592.33133888 0 0 3 
356 8 1 -1.00000000 129.10000610 -5.90497541 -33.51784134 595.71406555 0 0 3 
357 8 2 1.00000000 128.19999695 -5.10227156 -37.37597656 594.76490211 0 0 3 
358 8 1 -1.00000000 129.10000610 -3.93577790 -40.79559326 595.92936516 0 0 3 
359 8 1 -1.00000000 129.10000610 0.11253016 -40.62076569 596.21007156 0 0 3 
360 8 1 -1.00000000 129.10000610 3.07649970 -39.63245392 598.21696663 0 0 3 
361 8 2 1.00000000 128.19999695 6.25456953 -37.55161667 599.82055664 0 0 3 
362 8 1 -1.00000000 129.10000610 9.59960175 -35.59545135 598.47288513 0 0 3 
363 8 1 -1.00000000 129.10000610 12.81997681 -36.95749283 597.08743858 0 0 3 
364 8 1 -1.00000000 129.10000610 15.63142109 -38.77310181 595.73941803 0 0 3 
365 8 2 1.00000000 128.19999695 17.41136932 -40.95917511 592.45517921 0 0 3 
366 8 2 1.00000000 128.19999695 19.04974174 -43.90773010 590.04372025 0 0 3 
367 8 1 -1.00000000 129.10000610 20.16732788 -47.35249329 589.83536148 0 0 3 
368 8 1 -1.00000000 129.10000610 22.56651306 -47.30287552 593.18720627 0 0 3 
369 8 2 1.00000000 128.19999695 23.43949318 -49.72407532 596.27844238 0 0 3 
370 8 1 -1.00000000 129.10000610 22.78928185 -47.44782639 599.15718651 0 0 3 