ITEM: TIMESTEP
42050000 
ITEM: NUMBER OF ATOMS 
25000 
ITEM: BOX BOUNDS pp pp pp 
-103.678017 103.678017 
-103.678017 103.678017 
-103.678017 103.678017 
ITEM: ATOMS id mol type q mass xu yu zu ix iy iz 
1 1 2 1.00000000 128.19999695 472.40783310 -101.45970917 -237.70288086 2 0 -1 
2 1 1 -1.00000000 129.10000610 469.17201614 -99.95060730 -239.07868385 2 0 -1 
3 1 2 1.00000000 128.19999695 466.82856369 -97.21937561 -239.88004684 2 0 -1 
4 1 2 1.00000000 128.19999695 463.30663681 -96.26537323 -238.45486450 2 0 -1 
5 1 2 1.00000000 128.19999695 460.11865616 -96.81175995 -240.06309128 2 0 -1 
6 1 1 -1.00000000 129.10000610 459.80533218 -96.26149750 -243.77646637 2 0 -1 
7 1 2 1.00000000 128.19999695 461.26151276 -92.81536102 -244.80536270 2 0 -1 
8 1 1 -1.00000000 129.10000610 463.00307465 -90.65279388 -242.19879532 2 0 -1 
9 1 1 -1.00000000 129.10000610 465.25708771 -88.65989685 -240.03649521 2 0 -1 
10 1 1 -1.00000000 129.10000610 467.49171448 -85.48465729 -239.27155685 2 0 -1 
11 1 2 1.00000000 128.19999695 470.29010391 -87.10479736 -236.97192574 2 0 -1 
12 1 1 -1.00000000 129.10000610 468.83273315 -90.26995087 -235.55895805 2 0 -1 
13 1 1 -1.00000000 129.10000610 466.83538818 -91.90919495 -233.15981102 2 0 -1 
14 1 1 -1.00000000 129.10000610 466.88836288 -94.52092743 -230.71153450 2 0 -1 
15 1 2 1.00000000 128.19999695 465.87517929 -98.03130341 -230.81392288 2 0 -1 
16 1 2 1.00000000 128.19999695 468.13522339 -101.30989075 -230.36418152 2 0 -1 
17 1 1 -1.00000000 129.10000610 469.18254852 -104.38493347 -228.23781395 2 -1 -1 
18 1 1 -1.00000000 129.10000610 466.22766876 -106.58063507 -227.25262833 2 -1 -1 
19 1 2 1.00000000 128.19999695 466.43380356 -107.20004272 -223.52839470 2 -1 -1 
20 1 1 -1.00000000 129.10000610 464.12752151 -106.17994690 -220.53508568 2 -1 -1 
21 1 1 -1.00000000 129.10000610 464.71268463 -102.49062347 -218.80214691 2 0 -1 
22 1 1 -1.00000000 129.10000610 464.42230606 -98.87232971 -219.93579960 2 0 -1 
23 1 2 1.00000000 128.19999695 464.55250549 -95.02620697 -219.59447956 2 0 -1 
24 1 1 -1.00000000 129.10000610 466.12837219 -92.54232025 -217.08952427 2 0 -1 
25 1 1 -1.00000000 129.10000610 464.26411819 -91.26276398 -214.05056572 2 0 -1 
26 1 2 1.00000000 128.19999695 460.97914886 -89.20228577 -215.36598206 2 0 -1 
27 1 2 1.00000000 128.19999695 463.06454468 -85.86447144 -216.39170170 2 0 -1 
28 1 2 1.00000000 128.19999695 466.00683212 -86.87342834 -218.76311779 2 0 -1 
29 1 2 1.00000000 128.19999695 469.70005035 -87.12915039 -217.76678944 2 0 -1 
30 1 2 1.00000000 128.19999695 470.27418137 -83.42401123 -218.44223404 2 0 -1 
31 1 1 -1.00000000 129.10000610 469.02381516 -80.92075348 -215.88133907 2 0 -1 
32 1 1 -1.00000000 129.10000610 467.37062454 -77.75119781 -214.40957403 2 0 -1 
33 1 1 -1.00000000 129.10000610 463.66361618 -77.93407440 -213.31807137 2 0 -1 
34 1 2 1.00000000 128.19999695 461.08577347 -77.71738434 -215.89826679 2 0 -1 
35 1 2 1.00000000 128.19999695 457.91711426 -77.46038818 -217.74443722 2 0 -1 
36 1 2 1.00000000 128.19999695 455.01997375 -77.12972260 -220.25133991 2 0 -1 
37 1 1 -1.00000000 129.10000610 456.33845520 -76.70503235 -223.99487305 2 0 -1 
38 1 2 1.00000000 128.19999695 457.80315399 -73.13510132 -224.34131241 2 0 -1 
39 1 1 -1.00000000 129.10000610 461.26869965 -72.59542084 -225.80991554 2 0 -1 
40 1 1 -1.00000000 129.10000610 464.30305862 -70.69757080 -224.40737724 2 0 -1 
41 1 1 -1.00000000 129.10000610 467.44316101 -68.57495880 -225.01773262 2 0 -1 
42 1 2 1.00000000 128.19999695 471.14982986 -67.82453156 -225.80356789 2 0 -1 
43 1 1 -1.00000000 129.10000610 473.45980835 -67.68508148 -222.94069576 2 0 -1 
44 1 2 1.00000000 128.19999695 472.30074692 -66.90453339 -219.42212582 2 0 -1 
45 1 2 1.00000000 128.19999695 468.72137833 -65.00414276 -219.89970970 2 0 -1 
46 1 2 1.00000000 128.19999695 469.47682190 -61.31060028 -220.31899929 2 0 -1 
47 1 1 -1.00000000 129.10000610 469.53438950 -57.97332001 -221.58436584 2 0 -1 
48 1 2 1.00000000 128.19999695 467.94532394 -54.73409653 -222.65235043 2 0 -1 
49 1 1 -1.00000000 129.10000610 466.28289413 -53.15947723 -219.21630764 2 0 -1 
50 1 2 1.00000000 128.19999695 469.09215927 -50.91829300 -217.98767471 2 0 -1 
51 2 2 1.00000000 128.19999695 395.09488869 411.82156062 -314.96225739 2 2 -2 
52 2 1 -1.00000000 129.10000610 397.27383995 410.27236605 -312.50760651 2 2 -2 
53 2 2 1.00000000 128.19999695 395.82394600 407.30266142 -310.51010895 2 2 -1 
54 2 2 1.00000000 128.19999695 397.73167229 404.50744438 -308.47423553 2 2 -1 
55 2 2 1.00000000 128.19999695 400.33946133 401.86465168 -309.23421478 2 2 -1 
56 2 1 -1.00000000 129.10000610 399.37064934 398.03519440 -308.61451721 2 2 -1 
57 2 2 1.00000000 128.19999695 401.43933964 395.75740051 -306.76358795 2 2 -1 
58 2 1 -1.00000000 129.10000610 399.31684113 393.01428032 -304.65124512 2 2 -1 
59 2 1 -1.00000000 129.10000610 400.77407932 389.62925529 -306.07103729 2 2 -1 
60 2 1 -1.00000000 129.10000610 401.63527107 386.92323875 -308.59382629 2 2 -1 
61 2 2 1.00000000 128.19999695 401.59300995 383.24287796 -307.10236359 2 2 -1 
62 2 1 -1.00000000 129.10000610 403.19750500 380.23828888 -305.79029083 2 2 -1 
63 2 1 -1.00000000 129.10000610 405.84507942 377.65864563 -306.04707336 2 2 -1 
64 2 1 -1.00000000 129.10000610 404.79443455 375.50510788 -303.44866943 2 2 -1 
65 2 2 1.00000000 128.19999695 400.97857666 374.04915237 -303.24116516 2 2 -1 
66 2 2 1.00000000 128.19999695 398.33387756 372.51848984 -300.93066406 2 2 -1 
67 2 1 -1.00000000 129.10000610 399.85514545 369.43441772 -298.85617065 2 2 -1 
68 2 1 -1.00000000 129.10000610 401.20560741 368.42911148 -295.27468109 2 2 -1 
69 2 2 1.00000000 128.19999695 400.41739273 366.71277237 -292.01543427 2 2 -1 
70 2 1 -1.00000000 129.10000610 403.56599998 365.15923309 -290.21163177 2 2 -1 
71 2 1 -1.00000000 129.10000610 403.76195717 367.41880417 -287.10823059 2 2 -1 
72 2 1 -1.00000000 129.10000610 404.93792629 370.37786102 -284.68732452 2 2 -1 
73 2 2 1.00000000 128.19999695 406.49501610 372.96037674 -287.11824799 2 2 -1 
74 2 1 -1.00000000 129.10000610 407.99121094 372.82197189 -290.53546906 2 2 -1 
75 2 1 -1.00000000 129.10000610 410.87039828 370.46179581 -290.65000153 2 2 -1 
76 2 2 1.00000000 128.19999695 411.22673130 366.40956116 -290.37568665 2 2 -1 
77 2 2 1.00000000 128.19999695 409.04005671 363.80949402 -292.18482208 2 2 -1 
78 2 2 1.00000000 128.19999695 410.44146252 363.13558960 -295.36787415 2 2 -1 
79 2 2 1.00000000 128.19999695 414.15928441 363.66311646 -296.37171173 2 2 -1 
80 2 2 1.00000000 128.19999695 417.20702720 364.30351639 -293.97032928 2 2 -1 
81 2 1 -1.00000000 129.10000610 416.77049541 363.54004669 -290.09667206 2 2 -1 
82 2 1 -1.00000000 129.10000610 419.85667229 363.89111710 -288.16457367 2 2 -1 
83 2 1 -1.00000000 129.10000610 418.75495911 365.64453506 -285.07537842 2 2 -1 
84 2 2 1.00000000 128.19999695 420.54806566 364.82438660 -281.66538239 2 2 -1 
85 2 2 1.00000000 128.19999695 422.87068844 364.80445480 -278.55664825 2 2 -1 
86 2 2 1.00000000 128.19999695 423.45216179 361.43872452 -276.71088409 2 2 -1 
87 2 1 -1.00000000 129.10000610 420.82418108 359.13641739 -278.51713562 2 2 -1 
88 2 2 1.00000000 128.19999695 417.07085180 359.51089478 -278.31272125 2 2 -1 
89 2 1 -1.00000000 129.10000610 416.59254372 362.68657684 -276.29789734 2 2 -1 
90 2 1 -1.00000000 129.10000610 412.96234679 362.69970703 -274.82435608 2 2 -1 
91 2 1 -1.00000000 129.10000610 409.40809011 361.90516663 -275.00556946 2 2 -1 
92 2 2 1.00000000 128.19999695 407.03417063 364.28894806 -277.12125397 2 2 -1 
93 2 1 -1.00000000 129.10000610 409.26441574 367.10910797 -277.90482330 2 2 -1 
94 2 2 1.00000000 128.19999695 411.04130554 369.13465881 -280.65291595 2 2 -1 
95 2 2 1.00000000 128.19999695 408.80828953 372.34175491 -280.23363495 2 2 -1 
96 2 2 1.00000000 128.19999695 408.68084860 375.36388779 -277.93685150 2 2 -1 
97 2 1 -1.00000000 129.10000610 411.13668251 377.72560883 -279.46546173 2 2 -1 
98 2 2 1.00000000 128.19999695 413.87460959 378.52087021 -282.19935608 2 2 -1 
99 2 1 -1.00000000 129.10000610 415.96063364 375.22027588 -281.04235077 2 2 -1 
100 2 2 1.00000000 128.19999695 417.82565999 372.20289230 -280.07703400 2 2 -1 
101 3 2 1.00000000 128.19999695 369.74374008 -113.31597900 76.32370758 2 -1 0 
102 3 1 -1.00000000 129.10000610 367.39447403 -110.04244995 75.93807220 2 -1 0 
103 3 2 1.00000000 128.19999695 365.81674957 -106.68556976 77.39433289 2 -1 0 
104 3 2 1.00000000 128.19999695 363.63600922 -105.70140839 80.09901428 2 -1 0 
105 3 2 1.00000000 128.19999695 361.96074677 -103.58769989 82.84187317 2 0 0 
106 3 1 -1.00000000 129.10000610 363.08602524 -101.65745544 85.64682007 2 0 0 
107 3 2 1.00000000 128.19999695 364.58855438 -100.91410065 89.00665283 2 0 0 
108 3 1 -1.00000000 129.10000610 365.76029968 -97.27117157 89.94119263 2 0 0 
109 3 1 -1.00000000 129.10000610 364.74273682 -97.63663483 93.78169250 2 0 0 
110 3 1 -1.00000000 129.10000610 360.87241745 -97.82373810 93.09259033 2 0 0 
111 3 2 1.00000000 128.19999695 359.26065063 -96.28062439 89.91605377 2 0 0 
112 3 1 -1.00000000 129.10000610 355.96137619 -94.50048065 89.84463501 2 0 0 
113 3 1 -1.00000000 129.10000610 354.04555893 -91.21963501 91.40093231 2 0 0 
114 3 1 -1.00000000 129.10000610 351.03290939 -88.98546600 91.75860596 2 0 0 
115 3 2 1.00000000 128.19999695 348.13005829 -90.01409912 94.22444916 2 0 0 
116 3 2 1.00000000 128.19999695 347.58674622 -87.35155487 97.27255249 2 0 0 
117 3 1 -1.00000000 129.10000610 344.72382355 -85.37359619 98.58176422 2 0 0 
118 3 1 -1.00000000 129.10000610 342.65624237 -82.84371948 100.34164429 2 0 0 
119 3 2 1.00000000 128.19999695 342.25449371 -82.51457977 103.76509094 2 0 1 
120 3 1 -1.00000000 129.10000610 342.47164154 -82.08245850 107.55663300 2 0 1 
121 3 1 -1.00000000 129.10000610 345.80517578 -81.51943207 109.89836884 2 0 1 
122 3 1 -1.00000000 129.10000610 349.62053680 -79.76277161 109.64617920 2 0 1 
123 3 2 1.00000000 128.19999695 351.87902832 -77.26747894 108.09298706 2 0 1 
124 3 1 -1.00000000 129.10000610 350.95711517 -73.88593292 106.35899353 2 0 1 
125 3 1 -1.00000000 129.10000610 348.38564301 -73.55848694 103.76083374 2 0 1 
126 3 2 1.00000000 128.19999695 345.36983490 -74.38444519 106.16029358 2 0 1 
127 3 2 1.00000000 128.19999695 341.74675751 -73.81652069 105.54084015 2 0 1 
128 3 2 1.00000000 128.19999695 340.06365967 -74.33982086 102.48039246 2 0 0 
129 3 2 1.00000000 128.19999695 337.12677765 -75.51185608 101.21907043 2 0 0 
130 3 2 1.00000000 128.19999695 334.10711670 -77.57223511 101.03854370 2 0 0 
131 3 1 -1.00000000 129.10000610 332.43482971 -80.42539215 102.96814728 2 0 0 
132 3 1 -1.00000000 129.10000610 329.70031738 -82.97800446 104.05406952 2 0 1 
133 3 1 -1.00000000 129.10000610 330.66013336 -86.36418152 105.57361603 2 0 1 
134 3 2 1.00000000 128.19999695 331.20223999 -90.02938843 106.68386078 2 0 1 
135 3 2 1.00000000 128.19999695 331.41585541 -93.16009521 104.60506439 2 0 1 
136 3 2 1.00000000 128.19999695 330.35217285 -94.43054199 101.01956177 2 0 0 
137 3 1 -1.00000000 129.10000610 327.30240631 -92.64804077 100.09302521 2 0 0 
138 3 2 1.00000000 128.19999695 325.24576569 -92.36864471 96.79129791 2 0 0 
139 3 1 -1.00000000 129.10000610 323.58694458 -89.23826599 95.93286133 2 0 0 
140 3 1 -1.00000000 129.10000610 324.84733582 -85.96721649 97.82235718 2 0 0 
141 3 1 -1.00000000 129.10000610 324.24849701 -84.19855499 101.20234680 2 0 0 
142 3 2 1.00000000 128.19999695 323.46748352 -86.99408722 103.92250061 2 0 1 
143 3 1 -1.00000000 129.10000610 320.32366943 -88.38653564 105.74373627 2 0 1 
144 3 2 1.00000000 128.19999695 318.60118103 -91.41299438 107.61943054 2 0 1 
145 3 2 1.00000000 128.19999695 317.03905487 -94.39261627 106.52283478 2 0 1 
146 3 2 1.00000000 128.19999695 316.00849915 -94.30051422 102.96162415 2 0 0 
147 3 1 -1.00000000 129.10000610 317.29477692 -97.22554779 101.48868561 2 0 0 
148 3 2 1.00000000 128.19999695 319.08734894 -100.60336304 102.12963867 2 0 0 
149 3 1 -1.00000000 129.10000610 319.13258362 -104.01464844 103.26321411 2 -1 0 
150 3 2 1.00000000 128.19999695 319.05802917 -104.56154633 107.17399597 2 -1 1 
151 4 2 1.00000000 128.19999695 -257.52851486 445.78077316 76.39541626 -1 2 0 
152 4 1 -1.00000000 129.10000610 -259.00868607 444.25424576 73.22619629 -1 2 0 
153 4 2 1.00000000 128.19999695 -256.73302841 445.04243851 69.99370575 -1 2 0 
154 4 2 1.00000000 128.19999695 -258.66048813 445.92357635 66.47895813 -1 2 0 
155 4 2 1.00000000 128.19999695 -261.61751175 447.82480621 65.39708710 -1 2 0 
156 4 1 -1.00000000 129.10000610 -262.87699509 448.29690552 61.57183456 -1 2 0 
157 4 2 1.00000000 128.19999695 -263.40621185 452.46555710 61.74166107 -1 2 0 
158 4 1 -1.00000000 129.10000610 -266.77611160 453.09195709 62.95419312 -1 2 0 
159 4 1 -1.00000000 129.10000610 -269.33013535 450.88070679 60.83386993 -1 2 0 
160 4 1 -1.00000000 129.10000610 -271.25347900 447.24885559 61.35538483 -1 2 0 
161 4 2 1.00000000 128.19999695 -274.08251190 445.85872078 59.67746735 -1 2 0 
162 4 1 -1.00000000 129.10000610 -273.44071960 442.13422585 60.43831253 -1 2 0 
163 4 1 -1.00000000 129.10000610 -274.29164886 440.23105431 63.61566162 -1 2 0 
164 4 1 -1.00000000 129.10000610 -275.53104401 436.86262131 64.36708832 -1 2 0 
165 4 2 1.00000000 128.19999695 -274.87227631 433.90059662 62.40670776 -1 2 0 
166 4 2 1.00000000 128.19999695 -277.60715485 432.88387871 59.88059616 -1 2 0 
167 4 1 -1.00000000 129.10000610 -279.32277679 430.09173489 57.71952438 -1 2 0 
168 4 1 -1.00000000 129.10000610 -278.59467316 429.20715141 54.11813736 -1 2 0 
169 4 2 1.00000000 128.19999695 -278.05448151 429.29863358 50.24588394 -1 2 0 
170 4 1 -1.00000000 129.10000610 -275.44683838 431.46236420 48.57972717 -1 2 0 
171 4 1 -1.00000000 129.10000610 -273.65847778 434.80410957 49.83631897 -1 2 0 
172 4 1 -1.00000000 129.10000610 -272.08471680 437.90298080 51.13623810 -1 2 0 
173 4 2 1.00000000 128.19999695 -270.12329865 439.71669388 48.32903671 -1 2 0 
174 4 1 -1.00000000 129.10000610 -267.20896149 442.50395393 48.17774963 -1 2 0 
175 4 1 -1.00000000 129.10000610 -269.13705063 445.57960129 49.04991913 -1 2 0 
176 4 2 1.00000000 128.19999695 -267.73801804 448.89188004 50.11380386 -1 2 0 
177 4 2 1.00000000 128.19999695 -264.07646942 450.22751236 49.16663742 -1 2 0 
178 4 2 1.00000000 128.19999695 -263.04566956 452.83290482 46.68164444 -1 2 0 
179 4 2 1.00000000 128.19999695 -264.68233109 453.47084045 43.19384003 -1 2 0 
180 4 2 1.00000000 128.19999695 -265.00694275 451.82820129 39.88276672 -1 2 0 
181 4 1 -1.00000000 129.10000610 -267.92674637 451.18188095 37.77682495 -1 2 0 
182 4 1 -1.00000000 129.10000610 -270.68448639 448.59881210 37.17221069 -1 2 0 
183 4 1 -1.00000000 129.10000610 -273.19318390 445.90511894 38.24287796 -1 2 0 
184 4 2 1.00000000 128.19999695 -272.94786835 443.40618134 41.40939713 -1 2 0 
185 4 2 1.00000000 128.19999695 -275.80493164 441.11339188 42.71930313 -1 2 0 
186 4 2 1.00000000 128.19999695 -274.15798950 437.82529068 42.28879166 -1 2 0 
187 4 1 -1.00000000 129.10000610 -271.25372314 435.65321541 40.86046219 -1 2 0 
188 4 2 1.00000000 128.19999695 -269.20458603 433.87502289 38.16547012 -1 2 0 
189 4 1 -1.00000000 129.10000610 -269.65858078 431.93848610 34.91754532 -1 2 0 
190 4 1 -1.00000000 129.10000610 -268.32247162 428.86238003 33.41135025 -1 2 0 
191 4 1 -1.00000000 129.10000610 -268.49394608 425.49145412 32.28480530 -1 2 0 
192 4 2 1.00000000 128.19999695 -270.56676102 422.49331760 32.09675217 -1 2 0 
193 4 1 -1.00000000 129.10000610 -272.14089966 419.48330784 34.00815201 -1 2 0 
194 4 2 1.00000000 128.19999695 -275.36177063 417.72473335 35.34790039 -1 2 0 
195 4 2 1.00000000 128.19999695 -278.68322754 419.29567385 37.22582245 -1 2 0 
196 4 2 1.00000000 128.19999695 -282.62652588 418.27202225 36.79855728 -1 2 0 
197 4 1 -1.00000000 129.10000610 -283.35516357 415.35257155 39.48780441 -1 2 0 
198 4 2 1.00000000 128.19999695 -284.51094055 413.75188094 42.73890686 -1 2 0 
199 4 1 -1.00000000 129.10000610 -288.05645752 414.31676310 43.74680328 -1 2 0 
200 4 2 1.00000000 128.19999695 -291.26149750 415.93152130 44.40263748 -1 2 0 
201 5 2 1.00000000 128.19999695 -323.74405670 -278.75564575 -249.15388489 -2 -1 -1 
202 5 1 -1.00000000 129.10000610 -324.54737091 -279.14118195 -252.78290939 -2 -1 -1 
203 5 2 1.00000000 128.19999695 -326.42942810 -282.37640381 -253.12546921 -2 -1 -1 
204 5 2 1.00000000 128.19999695 -330.09072113 -281.35593414 -254.50994873 -2 -1 -1 
205 5 2 1.00000000 128.19999695 -332.25842285 -278.09210205 -255.98170090 -2 -1 -1 
206 5 1 -1.00000000 129.10000610 -330.04167175 -276.32600403 -258.76240921 -2 -1 -1 
207 5 2 1.00000000 128.19999695 -326.29161835 -275.89762878 -259.76222992 -2 -1 -1 
208 5 1 -1.00000000 129.10000610 -322.88394165 -277.06410217 -261.15575790 -2 -1 -1 
209 5 1 -1.00000000 129.10000610 -319.33858490 -276.37457275 -261.59603500 -2 -1 -1 
210 5 1 -1.00000000 129.10000610 -318.43807983 -273.28479767 -258.90294266 -2 -1 -1 
211 5 2 1.00000000 128.19999695 -320.34513092 -274.05252838 -255.41821671 -2 -1 -1 
212 5 1 -1.00000000 129.10000610 -322.81201172 -271.91060638 -253.14147568 -2 -1 -1 
213 5 1 -1.00000000 129.10000610 -324.26245117 -268.99406815 -254.94731140 -2 -1 -1 
214 5 1 -1.00000000 129.10000610 -327.38953400 -267.72219086 -256.89146805 -2 -1 -1 
215 5 2 1.00000000 128.19999695 -327.02831268 -265.79613495 -260.21744537 -2 -1 -1 
216 5 2 1.00000000 128.19999695 -323.21099854 -264.25366974 -260.45745468 -2 -1 -1 
217 5 1 -1.00000000 129.10000610 -320.01090240 -265.82358551 -261.80840683 -2 -1 -1 
218 5 1 -1.00000000 129.10000610 -318.32019806 -264.09722519 -264.83176804 -2 -1 -1 
219 5 2 1.00000000 128.19999695 -320.20646667 -264.23453903 -268.26666641 -2 -1 -1 
220 5 1 -1.00000000 129.10000610 -323.45335388 -265.82939529 -267.18667221 -2 -1 -1 
221 5 1 -1.00000000 129.10000610 -325.42942810 -268.66387939 -265.77553177 -2 -1 -1 
222 5 1 -1.00000000 129.10000610 -324.68257904 -271.85781860 -267.72497177 -2 -1 -1 
223 5 2 1.00000000 128.19999695 -322.17003632 -272.04723358 -270.72729492 -2 -1 -1 
224 5 1 -1.00000000 129.10000610 -318.64197540 -271.66153717 -270.01837158 -2 -1 -1 
225 5 1 -1.00000000 129.10000610 -315.08979797 -270.63560104 -269.13628006 -2 -1 -1 
226 5 2 1.00000000 128.19999695 -313.09066772 -271.19836426 -265.79877853 -2 -1 -1 
227 5 2 1.00000000 128.19999695 -313.49506378 -273.14712524 -262.34869003 -2 -1 -1 
228 5 2 1.00000000 128.19999695 -312.65068054 -271.36803436 -259.33744812 -2 -1 -1 
229 5 2 1.00000000 128.19999695 -312.29197693 -272.44383240 -255.53995514 -2 -1 -1 
230 5 2 1.00000000 128.19999695 -309.44718170 -272.76526642 -253.00856400 -1 -1 -1 
231 5 1 -1.00000000 129.10000610 -307.37330627 -275.73495483 -252.94171906 -1 -1 -1 
232 5 1 -1.00000000 129.10000610 -305.29724121 -277.60714722 -255.46128082 -1 -1 -1 
233 5 1 -1.00000000 129.10000610 -302.19992828 -278.74080658 -257.07814026 -1 -1 -1 
234 5 2 1.00000000 128.19999695 -300.77239227 -282.02467346 -257.33959198 -1 -1 -1 
235 5 2 1.00000000 128.19999695 -298.88936615 -285.57492065 -258.48557663 -1 -1 -1 
236 5 2 1.00000000 128.19999695 -296.28139496 -287.25836945 -259.57439804 -1 -1 -1 
237 5 1 -1.00000000 129.10000610 -294.43072510 -286.50637817 -262.32221985 -1 -1 -1 
238 5 2 1.00000000 128.19999695 -293.66009521 -282.56110382 -262.52007294 -1 -1 -1 
239 5 1 -1.00000000 129.10000610 -294.31092072 -280.78735352 -266.05616760 -1 -1 -1 
240 5 1 -1.00000000 129.10000610 -290.83630371 -281.06488800 -267.14751053 -1 -1 -1 
241 5 1 -1.00000000 129.10000610 -288.44165802 -279.05345917 -269.79717255 -1 -1 -1 
242 5 2 1.00000000 128.19999695 -288.10838318 -275.46852112 -269.65195084 -1 -1 -1 
243 5 1 -1.00000000 129.10000610 -290.11827850 -272.37916565 -268.57838821 -1 -1 -1 
244 5 2 1.00000000 128.19999695 -292.52477264 -269.92759323 -268.21384048 -1 -1 -1 
245 5 2 1.00000000 128.19999695 -293.11534882 -268.40799332 -264.65218353 -1 -1 -1 
246 5 2 1.00000000 128.19999695 -294.13630676 -267.64387894 -261.15998840 -1 -1 -1 
247 5 1 -1.00000000 129.10000610 -293.14856720 -268.41720963 -257.68429947 -1 -1 -1 
248 5 2 1.00000000 128.19999695 -290.07643890 -265.79110718 -257.62400436 -1 -1 -1 
249 5 1 -1.00000000 129.10000610 -290.61493683 -261.98723221 -256.39788055 -1 -1 -1 
250 5 2 1.00000000 128.19999695 -290.80244446 -258.33660507 -255.88782883 -1 -1 -1 
251 6 2 1.00000000 128.19999695 415.87728751 -354.79264832 -61.84461212 2 -2 0 
252 6 1 -1.00000000 129.10000610 418.13268542 -356.56471252 -64.22060394 2 -2 0 
253 6 2 1.00000000 128.19999695 419.40211487 -358.28087234 -67.27054596 2 -2 0 
254 6 2 1.00000000 128.19999695 416.84237885 -360.93485641 -69.69383240 2 -2 0 
255 6 2 1.00000000 128.19999695 417.68358994 -363.41128922 -72.75629425 2 -2 0 
256 6 1 -1.00000000 129.10000610 416.04911172 -367.20185089 -73.17100525 2 -2 0 
257 6 2 1.00000000 128.19999695 413.17042911 -369.06834793 -71.86156464 2 -2 0 
258 6 1 -1.00000000 129.10000610 411.05773902 -369.01116562 -68.67427063 2 -2 0 
259 6 1 -1.00000000 129.10000610 412.47399521 -369.30495453 -65.31901550 2 -2 0 
260 6 1 -1.00000000 129.10000610 416.10420573 -370.30930328 -64.87202454 2 -2 0 
261 6 2 1.00000000 128.19999695 417.16596794 -372.61708832 -62.14884567 2 -2 0 
262 6 1 -1.00000000 129.10000610 414.33870536 -375.27143478 -60.48951721 2 -2 0 
263 6 1 -1.00000000 129.10000610 414.11686468 -377.67869186 -63.22065735 2 -2 0 
264 6 1 -1.00000000 129.10000610 416.80536890 -379.62591934 -65.46383667 2 -2 0 
265 6 2 1.00000000 128.19999695 417.15411568 -378.01626587 -68.86916351 2 -2 0 
266 6 2 1.00000000 128.19999695 413.83884341 -376.10456085 -68.73532867 2 -2 0 
267 6 1 -1.00000000 129.10000610 413.14774048 -374.61845779 -72.16077423 2 -2 0 
268 6 1 -1.00000000 129.10000610 414.03113431 -374.12385559 -75.68382263 2 -2 0 
269 6 2 1.00000000 128.19999695 417.08629656 -376.11043549 -76.27101898 2 -2 0 
270 6 1 -1.00000000 129.10000610 418.33722210 -379.66727066 -75.64678192 2 -2 0 
271 6 1 -1.00000000 129.10000610 416.90564203 -382.17568588 -73.11827850 2 -2 0 
272 6 1 -1.00000000 129.10000610 419.98162031 -383.59952354 -71.66016388 2 -2 0 
273 6 2 1.00000000 128.19999695 423.33136559 -381.38279724 -70.73341370 2 -2 0 
274 6 1 -1.00000000 129.10000610 425.97413063 -383.88524246 -70.74550629 2 -2 0 
275 6 1 -1.00000000 129.10000610 426.48970413 -386.05202103 -73.99812317 2 -2 0 
276 6 2 1.00000000 128.19999695 424.35809517 -384.10076332 -76.65040588 2 -2 0 
277 6 2 1.00000000 128.19999695 421.55319643 -384.85908318 -78.92680359 2 -2 0 
278 6 2 1.00000000 128.19999695 419.48546791 -383.80318069 -81.93518829 2 -2 0 
279 6 2 1.00000000 128.19999695 419.24352884 -379.99024582 -82.50698090 2 -2 0 
280 6 2 1.00000000 128.19999695 417.17706251 -378.61784363 -85.63107300 2 -2 0 
281 6 1 -1.00000000 129.10000610 416.23099530 -377.97266769 -89.03652954 2 -2 0 
282 6 1 -1.00000000 129.10000610 419.31610537 -377.69847488 -91.21299744 2 -2 0 
283 6 1 -1.00000000 129.10000610 418.85535145 -377.44102097 -95.07254028 2 -2 0 
284 6 2 1.00000000 128.19999695 420.27396536 -375.43413544 -98.19629669 2 -2 0 
285 6 2 1.00000000 128.19999695 421.48270464 -377.05888367 -101.63437653 2 -2 0 
286 6 2 1.00000000 128.19999695 421.09864283 -378.38063431 -105.24544525 2 -2 -1 
287 6 1 -1.00000000 129.10000610 421.99036837 -375.97009277 -107.93146515 2 -2 -1 
288 6 2 1.00000000 128.19999695 425.42291164 -376.08443069 -109.76719666 2 -2 -1 
289 6 1 -1.00000000 129.10000610 424.95199871 -378.51718903 -112.61186218 2 -2 -1 
290 6 1 -1.00000000 129.10000610 423.18785286 -379.58802795 -115.56650543 2 -2 -1 
291 6 1 -1.00000000 129.10000610 423.84742832 -378.53730774 -118.97961426 2 -2 -1 
292 6 2 1.00000000 128.19999695 422.79664516 -375.95755005 -121.63614655 2 -2 -1 
293 6 1 -1.00000000 129.10000610 421.57703876 -374.46658325 -124.82292175 2 -2 -1 
294 6 2 1.00000000 128.19999695 421.44914961 -371.05400085 -126.45928192 2 -2 -1 
295 6 2 1.00000000 128.19999695 421.53562212 -371.23187256 -130.24729919 2 -2 -1 
296 6 2 1.00000000 128.19999695 422.68251371 -368.14649200 -132.22034454 2 -2 -1 
297 6 1 -1.00000000 129.10000610 424.80213928 -365.58889389 -134.12663269 2 -2 -1 
298 6 2 1.00000000 128.19999695 426.53787518 -365.87221527 -137.48050690 2 -2 -1 
299 6 1 -1.00000000 129.10000610 425.42807484 -369.44581604 -138.65402985 2 -2 -1 
300 6 2 1.00000000 128.19999695 422.54625607 -371.96440506 -139.48613739 2 -2 -1 
301 7 2 1.00000000 128.19999695 -61.64628220 -11.74413681 -932.52301788 0 0 -4 
302 7 1 -1.00000000 129.10000610 -57.88039017 -12.36202812 -933.91307068 0 0 -5 
303 7 2 1.00000000 128.19999695 -56.30784225 -12.04661560 -937.29594421 0 0 -5 
304 7 2 1.00000000 128.19999695 -54.73608398 -12.33033180 -940.85459137 0 0 -5 
305 7 2 1.00000000 128.19999695 -56.06313324 -9.44477463 -942.88142395 0 0 -5 
306 7 1 -1.00000000 129.10000610 -54.43583298 -6.14644051 -944.00904083 0 0 -5 
307 7 2 1.00000000 128.19999695 -57.15043259 -4.82663822 -946.45041656 0 0 -5 
308 7 1 -1.00000000 129.10000610 -58.38484573 -7.30122948 -949.10258484 0 0 -5 
309 7 1 -1.00000000 129.10000610 -57.26051712 -10.52341843 -950.48771667 0 0 -5 
310 7 1 -1.00000000 129.10000610 -59.18718338 -12.56798077 -952.63107300 0 0 -5 
311 7 2 1.00000000 128.19999695 -59.32918930 -16.47621346 -953.27397919 0 0 -5 
312 7 1 -1.00000000 129.10000610 -59.71175385 -19.29700470 -956.09020996 0 0 -5 
313 7 1 -1.00000000 129.10000610 -62.59292603 -17.89458847 -958.01628113 0 0 -5 
314 7 1 -1.00000000 129.10000610 -65.48047638 -19.29162216 -955.66890717 0 0 -5 
315 7 2 1.00000000 128.19999695 -67.66362762 -18.40771675 -952.41815186 0 0 -5 
316 7 2 1.00000000 128.19999695 -71.08022308 -20.16208267 -952.38742828 0 0 -5 
317 7 1 -1.00000000 129.10000610 -71.58298492 -23.42197418 -950.32950592 0 0 -5 
318 7 1 -1.00000000 129.10000610 -72.41847229 -24.48602104 -946.73909760 0 0 -5 
319 7 2 1.00000000 128.19999695 -73.90039825 -21.44413376 -944.81669617 0 0 -5 
320 7 1 -1.00000000 129.10000610 -76.39731598 -21.20795631 -942.10082245 0 0 -5 
321 7 1 -1.00000000 129.10000610 -78.43289185 -17.71999741 -942.98900604 0 0 -5 
322 7 1 -1.00000000 129.10000610 -78.27112579 -13.71405792 -943.61411285 0 0 -5 
323 7 2 1.00000000 128.19999695 -80.07923889 -10.49047089 -943.95543671 0 0 -5 
324 7 1 -1.00000000 129.10000610 -83.86703491 -11.05561543 -944.09997559 0 0 -5 
325 7 1 -1.00000000 129.10000610 -86.52241516 -13.93630219 -944.20162201 0 0 -5 
326 7 2 1.00000000 128.19999695 -84.14665222 -16.43246841 -946.17577362 0 0 -5 
327 7 2 1.00000000 128.19999695 -83.78230286 -19.22615242 -948.70873260 0 0 -5 
328 7 2 1.00000000 128.19999695 -80.97399902 -21.80272865 -947.47338867 0 0 -5 
329 7 2 1.00000000 128.19999695 -79.86098480 -24.96048737 -946.17112732 0 0 -5 
330 7 2 1.00000000 128.19999695 -77.39994049 -27.64110947 -945.36337280 0 0 -5 
331 7 1 -1.00000000 129.10000610 -76.94258881 -27.67266655 -941.06533813 0 0 -5 
332 7 1 -1.00000000 129.10000610 -78.09201813 -30.32643318 -938.83332825 0 0 -5 
333 7 1 -1.00000000 129.10000610 -78.36189270 -33.32249451 -936.21856689 0 0 -5 
334 7 2 1.00000000 128.19999695 -76.86770630 -36.78657913 -935.44003296 0 0 -5 
335 7 2 1.00000000 128.19999695 -76.45352936 -37.57131195 -931.91895294 0 0 -4 
336 7 2 1.00000000 128.19999695 -72.91696167 -37.86915588 -930.32217407 0 0 -4 
337 7 1 -1.00000000 129.10000610 -70.81734467 -40.76859665 -931.80431366 0 0 -4 
338 7 2 1.00000000 128.19999695 -72.84333038 -43.12714005 -934.10607910 0 0 -5 
339 7 1 -1.00000000 129.10000610 -71.46793365 -45.46976089 -936.57936859 0 0 -5 
340 7 1 -1.00000000 129.10000610 -68.36185455 -43.75643158 -938.00350189 0 0 -5 
341 7 1 -1.00000000 129.10000610 -66.77995300 -42.13996124 -940.58515167 0 0 -5 
342 7 2 1.00000000 128.19999695 -66.64768219 -39.74327469 -943.59255219 0 0 -5 
343 7 1 -1.00000000 129.10000610 -65.06261444 -36.84918976 -941.38239288 0 0 -5 
344 7 2 1.00000000 128.19999695 -61.26013184 -37.21687698 -941.88119507 0 0 -5 
345 7 2 1.00000000 128.19999695 -59.14241028 -35.28523254 -939.32218933 0 0 -5 
346 7 2 1.00000000 128.19999695 -56.37556839 -32.86840057 -940.57717133 0 0 -5 
347 7 1 -1.00000000 129.10000610 -54.47933960 -29.81018257 -938.48898315 0 0 -5 
348 7 2 1.00000000 128.19999695 -52.24879837 -26.55288887 -939.38574982 0 0 -5 
349 7 1 -1.00000000 129.10000610 -48.82103348 -26.69491386 -940.73274231 0 0 -5 
350 7 2 1.00000000 128.19999695 -45.82191849 -28.76052094 -941.39553070 0 0 -5 
351 8 2 1.00000000 128.19999695 34.36592865 -76.08713531 644.18306732 0 0 3 
352 8 1 -1.00000000 129.10000610 35.33184052 -73.24824524 641.84453201 0 0 3 
353 8 2 1.00000000 128.19999695 33.08076859 -70.49372101 641.79453850 0 0 3 
354 8 2 1.00000000 128.19999695 30.40134048 -69.51468658 644.40556908 0 0 3 
355 8 2 1.00000000 128.19999695 26.84736633 -67.88929749 644.50171280 0 0 3 
356 8 1 -1.00000000 129.10000610 23.80680084 -70.03348541 645.08860397 0 0 3 
357 8 2 1.00000000 128.19999695 22.67074585 -73.02215576 643.46577263 0 0 3 
358 8 1 -1.00000000 129.10000610 21.55055046 -76.40343475 641.87868881 0 0 3 
359 8 1 -1.00000000 129.10000610 17.86066628 -77.58016968 641.71814156 0 0 3 
360 8 1 -1.00000000 129.10000610 16.36435699 -74.39273834 643.28990555 0 0 3 
361 8 2 1.00000000 128.19999695 15.65328026 -71.15075684 641.42034912 0 0 3 
362 8 1 -1.00000000 129.10000610 16.99022293 -68.31957245 643.73176193 0 0 3 
363 8 1 -1.00000000 129.10000610 16.76335335 -64.59921265 644.47079659 0 0 3 
364 8 1 -1.00000000 129.10000610 16.35376358 -62.54826355 647.70204544 0 0 3 
365 8 2 1.00000000 128.19999695 15.65442371 -64.49365997 650.86052132 0 0 3 
366 8 2 1.00000000 128.19999695 14.12112141 -62.44938278 653.77796173 0 0 3 
367 8 1 -1.00000000 129.10000610 14.89748287 -59.41116714 655.73580170 0 0 3 
368 8 1 -1.00000000 129.10000610 16.85563850 -58.02691650 658.68342590 0 0 3 
369 8 2 1.00000000 128.19999695 20.64829445 -56.67242813 658.37130737 0 0 3 
370 8 1 -1.00000000 129.10000610 23.44680405 -57.60797501 661.14435196 0 0 3 
371 8 1 -1.00000000 129.10000610 25.37439156 -61.01520157 662.05708694 0 0 3 