ITEM: TIMESTEP
42800000 
ITEM: NUMBER OF ATOMS 
25000 
ITEM: BOX BOUNDS pp pp pp 
-103.678017 103.678017 
-103.678017 103.678017 
-103.678017 103.678017 
ITEM: ATOMS id mol type q mass xu yu zu ix iy iz 
1 1 2 1.00000000 128.19999695 501.59230042 -140.85727692 -308.27908325 2 -1 -1 
2 1 1 -1.00000000 129.10000610 501.26256561 -143.69413757 -311.22461700 2 -1 -2 
3 1 2 1.00000000 128.19999695 498.35926819 -143.58810043 -313.74413300 2 -1 -2 
4 1 2 1.00000000 128.19999695 499.03012085 -146.12713242 -316.67485046 2 -1 -2 
5 1 2 1.00000000 128.19999695 496.98010254 -149.30649948 -318.02143097 2 -1 -2 
6 1 1 -1.00000000 129.10000610 495.29931641 -152.29730606 -318.83610535 2 -1 -2 
7 1 2 1.00000000 128.19999695 492.93993378 -155.63403702 -318.96908569 2 -1 -2 
8 1 1 -1.00000000 129.10000610 489.16213226 -156.75656509 -318.51798248 2 -1 -2 
9 1 1 -1.00000000 129.10000610 486.91567230 -156.47137070 -321.94502258 2 -1 -2 
10 1 1 -1.00000000 129.10000610 485.45002747 -156.03405380 -325.36073303 2 -1 -2 
11 1 2 1.00000000 128.19999695 486.90814209 -157.19486618 -328.70635986 2 -1 -2 
12 1 1 -1.00000000 129.10000610 489.75226593 -156.57077408 -331.16825104 2 -1 -2 
13 1 1 -1.00000000 129.10000610 492.79943085 -156.04500580 -328.95182037 2 -1 -2 
14 1 1 -1.00000000 129.10000610 493.71289825 -157.31320190 -325.39348602 2 -1 -2 
15 1 2 1.00000000 128.19999695 497.21596527 -157.50004959 -324.77748871 2 -1 -2 
16 1 2 1.00000000 128.19999695 499.55116272 -154.69805145 -323.88765717 2 -1 -2 
17 1 1 -1.00000000 129.10000610 498.74799347 -150.75817108 -324.06809235 2 -1 -2 
18 1 1 -1.00000000 129.10000610 499.09296417 -147.46117401 -325.57588196 2 -1 -2 
19 1 2 1.00000000 128.19999695 501.72463226 -145.49493790 -324.19634247 2 -1 -2 
20 1 1 -1.00000000 129.10000610 501.17689514 -141.99643707 -325.08165741 2 -1 -2 
21 1 1 -1.00000000 129.10000610 498.39096069 -139.62894440 -326.85010529 2 -1 -2 
22 1 1 -1.00000000 129.10000610 498.16811371 -138.08173370 -330.37615967 2 -1 -2 
23 1 2 1.00000000 128.19999695 500.04372406 -137.37326813 -333.85453033 2 -1 -2 
24 1 1 -1.00000000 129.10000610 498.92767334 -137.86025238 -337.24554443 2 -1 -2 
25 1 1 -1.00000000 129.10000610 496.12302399 -136.82641602 -339.04290771 2 -1 -2 
26 1 2 1.00000000 128.19999695 493.86951447 -138.79238129 -340.87423706 2 -1 -2 
27 1 2 1.00000000 128.19999695 490.69505310 -140.77597046 -342.50605011 2 -1 -2 
28 1 2 1.00000000 128.19999695 487.16085815 -140.53580475 -342.39751434 2 -1 -2 
29 1 2 1.00000000 128.19999695 483.83982086 -140.47475433 -340.40637207 2 -1 -2 
30 1 2 1.00000000 128.19999695 482.61576843 -142.26838684 -337.32031250 2 -1 -2 
31 1 1 -1.00000000 129.10000610 484.72270203 -140.84429932 -334.42701721 2 -1 -2 
32 1 1 -1.00000000 129.10000610 486.91678619 -138.21550751 -333.43721771 2 -1 -2 
33 1 1 -1.00000000 129.10000610 484.97801208 -135.35702515 -331.59403229 2 -1 -2 
34 1 2 1.00000000 128.19999695 485.68756866 -132.42024994 -328.80403137 2 -1 -2 
35 1 2 1.00000000 128.19999695 489.16723633 -131.28553009 -327.74852753 2 -1 -2 
36 1 2 1.00000000 128.19999695 493.22924042 -131.37340546 -327.33462524 2 -1 -2 
37 1 1 -1.00000000 129.10000610 495.21568298 -128.81281281 -325.28532410 2 -1 -2 
38 1 2 1.00000000 128.19999695 495.83618164 -124.98706055 -325.20664215 2 -1 -2 
39 1 1 -1.00000000 129.10000610 494.43778229 -122.24858093 -322.74653625 2 -1 -2 
40 1 1 -1.00000000 129.10000610 494.19738770 -119.26768494 -320.48893738 2 -1 -2 
41 1 1 -1.00000000 129.10000610 496.10894775 -118.14190674 -316.96538544 2 -1 -2 
42 1 2 1.00000000 128.19999695 496.77109528 -114.35198975 -318.00661469 2 -1 -2 
43 1 1 -1.00000000 129.10000610 497.04502869 -110.56562042 -318.83066559 2 -1 -2 
44 1 2 1.00000000 128.19999695 498.56156921 -110.51249695 -322.40575409 2 -1 -2 
45 1 2 1.00000000 128.19999695 502.35635376 -111.52909851 -321.87805176 2 -1 -2 
46 1 2 1.00000000 128.19999695 503.76187897 -114.48639679 -324.14825439 2 -1 -2 
47 1 1 -1.00000000 129.10000610 501.07232666 -116.78898621 -326.36893463 2 -1 -2 
48 1 2 1.00000000 128.19999695 497.90262604 -118.82769775 -328.31771088 2 -1 -2 
49 1 1 -1.00000000 129.10000610 497.76297760 -119.22985077 -331.88442993 2 -1 -2 
50 1 2 1.00000000 128.19999695 499.90742493 -119.29238892 -334.86832428 2 -1 -2 
51 2 2 1.00000000 128.19999695 454.38383484 390.68201828 -326.61466980 2 2 -2 
52 2 1 -1.00000000 129.10000610 456.36280060 392.50666618 -329.07917786 2 2 -2 
53 2 2 1.00000000 128.19999695 458.07393265 391.33709335 -332.26479340 2 2 -2 
54 2 2 1.00000000 128.19999695 458.16418076 392.99305344 -335.76480865 2 2 -2 
55 2 2 1.00000000 128.19999695 458.84125137 393.24703598 -339.26322174 2 2 -2 
56 2 1 -1.00000000 129.10000610 456.04627991 392.79425049 -342.14969635 2 2 -2 
57 2 2 1.00000000 128.19999695 454.16139984 395.90041542 -342.64937592 2 2 -2 
58 2 1 -1.00000000 129.10000610 452.24163437 396.44142532 -339.56144714 2 2 -2 
59 2 1 -1.00000000 129.10000610 451.66670609 392.71790123 -338.06414032 2 2 -2 
60 2 1 -1.00000000 129.10000610 452.29134369 389.78692818 -335.72367859 2 2 -2 
61 2 2 1.00000000 128.19999695 450.90614700 388.07441521 -332.12172699 2 2 -2 
62 2 1 -1.00000000 129.10000610 448.13803101 390.69216156 -332.21608734 2 2 -2 
63 2 1 -1.00000000 129.10000610 446.13031578 390.48035622 -335.55768585 2 2 -2 
64 2 1 -1.00000000 129.10000610 442.73479080 391.72234535 -336.79950714 2 2 -2 
65 2 2 1.00000000 128.19999695 441.42785645 395.43983269 -336.92045593 2 2 -2 
66 2 2 1.00000000 128.19999695 440.16000557 396.46682358 -340.40665436 2 2 -2 
67 2 1 -1.00000000 129.10000610 441.66239929 393.64113045 -342.47837067 2 2 -2 
68 2 1 -1.00000000 129.10000610 440.05432320 390.01861572 -341.50389862 2 2 -2 
69 2 2 1.00000000 128.19999695 437.18843079 389.40523720 -339.16238403 2 2 -2 
70 2 1 -1.00000000 129.10000610 434.44339561 392.03093529 -338.96831512 2 2 -2 
71 2 1 -1.00000000 129.10000610 433.87895393 395.86993980 -338.99011230 2 2 -2 
72 2 1 -1.00000000 129.10000610 434.20623398 399.43412781 -338.01905823 2 2 -2 
73 2 2 1.00000000 128.19999695 430.94668770 401.34239197 -336.93349457 2 2 -2 
74 2 1 -1.00000000 129.10000610 431.04172516 401.85276508 -333.09720612 2 2 -2 
75 2 1 -1.00000000 129.10000610 434.50230217 401.04965496 -332.02734375 2 2 -2 
76 2 2 1.00000000 128.19999695 435.81938744 397.81481934 -331.45413208 2 2 -2 
77 2 2 1.00000000 128.19999695 437.91555786 395.74627686 -328.98554230 2 2 -2 
78 2 2 1.00000000 128.19999695 440.56141090 394.59448051 -326.35413361 2 2 -2 
79 2 2 1.00000000 128.19999695 442.59461403 397.65568924 -325.45987701 2 2 -2 
80 2 2 1.00000000 128.19999695 443.60043907 400.89587879 -323.78762817 2 2 -2 
81 2 1 -1.00000000 129.10000610 442.72076035 403.17076397 -320.51829529 2 2 -2 
82 2 1 -1.00000000 129.10000610 439.22718620 401.63922787 -320.13748169 2 2 -2 
83 2 1 -1.00000000 129.10000610 437.17988205 402.87423229 -323.17932129 2 2 -2 
84 2 2 1.00000000 128.19999695 433.51224709 403.94868279 -323.36859131 2 2 -2 
85 2 2 1.00000000 128.19999695 430.31208324 401.65199757 -324.06709290 2 2 -2 
86 2 2 1.00000000 128.19999695 426.96152782 401.18722534 -325.67221069 2 2 -2 
87 2 1 -1.00000000 129.10000610 423.97834015 398.98525047 -324.59597015 2 2 -2 
88 2 2 1.00000000 128.19999695 420.97097921 396.70567513 -324.08447266 2 2 -2 
89 2 1 -1.00000000 129.10000610 420.39876318 392.79482460 -323.84496307 2 2 -2 
90 2 1 -1.00000000 129.10000610 419.97340488 392.94969559 -327.76141357 2 2 -2 
91 2 1 -1.00000000 129.10000610 420.02683687 392.52048492 -331.52744293 2 2 -2 
92 2 2 1.00000000 128.19999695 420.29297113 389.78184319 -333.89954376 2 2 -2 
93 2 1 -1.00000000 129.10000610 423.02118778 387.07740021 -333.67659760 2 2 -2 
94 2 2 1.00000000 128.19999695 425.65132904 384.15083122 -333.59726715 2 2 -2 
95 2 2 1.00000000 128.19999695 428.99909592 382.25784302 -333.61968231 2 2 -2 
96 2 2 1.00000000 128.19999695 432.66651154 382.29256058 -333.24385834 2 2 -2 
97 2 1 -1.00000000 129.10000610 434.26530457 380.65718460 -336.26009369 2 2 -2 
98 2 2 1.00000000 128.19999695 432.16900253 379.33680344 -339.58464813 2 2 -2 
99 2 1 -1.00000000 129.10000610 434.40594292 379.93098450 -342.80555725 2 2 -2 
100 2 2 1.00000000 128.19999695 435.71193123 381.93719101 -345.28528595 2 2 -2 
101 3 2 1.00000000 128.19999695 363.38951492 -113.30438232 73.02431488 2 -1 0 
102 3 1 -1.00000000 129.10000610 362.51308441 -111.91670990 76.71660614 2 -1 0 
103 3 2 1.00000000 128.19999695 358.88986969 -112.33472443 77.66403198 2 -1 0 
104 3 2 1.00000000 128.19999695 355.41003036 -111.27356720 78.35990143 2 -1 0 
105 3 2 1.00000000 128.19999695 354.67124176 -108.06750488 80.29853058 2 -1 0 
106 3 1 -1.00000000 129.10000610 352.23043823 -105.64041138 79.57701111 2 -1 0 
107 3 2 1.00000000 128.19999695 353.49751282 -102.17652893 78.81588745 2 0 0 
108 3 1 -1.00000000 129.10000610 357.26683426 -102.29652405 77.54570007 2 0 0 
109 3 1 -1.00000000 129.10000610 359.43381500 -101.08308411 79.97174835 2 0 0 
110 3 1 -1.00000000 129.10000610 359.49555969 -97.84199524 81.78580475 2 0 0 
111 3 2 1.00000000 128.19999695 356.07853699 -96.92914581 82.92681122 2 0 0 
112 3 1 -1.00000000 129.10000610 354.38967514 -97.72289276 86.50259399 2 0 0 
113 3 1 -1.00000000 129.10000610 353.46416855 -96.59896088 89.94770813 2 0 0 
114 3 1 -1.00000000 129.10000610 352.38590622 -97.43053436 93.47077179 2 0 0 
115 3 2 1.00000000 128.19999695 351.68696976 -99.68934631 96.07726288 2 0 0 
116 3 2 1.00000000 128.19999695 351.53619385 -103.21618652 97.38706970 2 0 0 
117 3 1 -1.00000000 129.10000610 354.05767059 -105.51652527 97.99383545 2 -1 0 
118 3 1 -1.00000000 129.10000610 353.90174484 -106.42306519 101.87355042 2 -1 0 
119 3 2 1.00000000 128.19999695 352.04348755 -107.93703461 104.73288727 2 -1 1 
120 3 1 -1.00000000 129.10000610 348.89540100 -108.47921753 106.38209534 2 -1 1 
121 3 1 -1.00000000 129.10000610 349.00269318 -105.62494659 109.21810150 2 -1 1 
122 3 1 -1.00000000 129.10000610 352.57353592 -105.53578186 110.90412903 2 -1 1 
123 3 2 1.00000000 128.19999695 355.71075058 -104.18919373 109.67765808 2 -1 1 
124 3 1 -1.00000000 129.10000610 358.25921249 -106.40059662 110.45694733 2 -1 1 
125 3 1 -1.00000000 129.10000610 359.32008743 -109.80549622 108.74690247 2 -1 1 
126 3 2 1.00000000 128.19999695 360.82226562 -109.92196655 105.41032410 2 -1 1 
127 3 2 1.00000000 128.19999695 359.30679321 -107.07010651 103.54430389 2 -1 0 
128 3 2 1.00000000 128.19999695 359.97012711 -107.73593140 99.91876984 2 -1 0 
129 3 2 1.00000000 128.19999695 359.65783310 -108.52571869 96.19419098 2 -1 0 
130 3 2 1.00000000 128.19999695 359.34397888 -108.13567352 92.31327057 2 -1 0 
131 3 1 -1.00000000 129.10000610 356.31903839 -105.90105438 90.22435760 2 -1 0 
132 3 1 -1.00000000 129.10000610 355.31166458 -105.99938965 86.56610107 2 -1 0 
133 3 1 -1.00000000 129.10000610 351.64843369 -107.41758728 86.09799194 2 -1 0 
134 3 2 1.00000000 128.19999695 349.08650208 -105.85458374 88.72120667 2 -1 0 
135 3 2 1.00000000 128.19999695 348.06569672 -102.26898956 87.38794708 2 0 0 
136 3 2 1.00000000 128.19999695 346.00627899 -99.48667908 88.44173431 2 0 0 
137 3 1 -1.00000000 129.10000610 346.08406067 -96.14168549 86.53739166 2 0 0 
138 3 2 1.00000000 128.19999695 346.85510254 -92.61628723 87.84318542 2 0 0 
139 3 1 -1.00000000 129.10000610 349.01966095 -89.68210602 86.93515015 2 0 0 
140 3 1 -1.00000000 129.10000610 348.12033844 -86.13446808 87.12202454 2 0 0 
141 3 1 -1.00000000 129.10000610 345.65850830 -84.62861633 84.08789062 2 0 0 
142 3 2 1.00000000 128.19999695 342.02542114 -84.43174744 84.88925934 2 0 0 
143 3 1 -1.00000000 129.10000610 340.51976013 -83.01264954 87.95933533 2 0 0 
144 3 2 1.00000000 128.19999695 340.43923950 -79.35047150 88.91642761 2 0 0 
145 3 2 1.00000000 128.19999695 343.06742859 -76.70132446 88.44092560 2 0 0 
146 3 2 1.00000000 128.19999695 345.59934998 -75.23325348 91.08170319 2 0 0 
147 3 1 -1.00000000 129.10000610 345.43064117 -71.21882629 90.17640686 2 0 0 
148 3 2 1.00000000 128.19999695 346.10723877 -70.20827484 86.62332153 2 0 0 
149 3 1 -1.00000000 129.10000610 346.89752197 -68.68413544 83.37080383 2 0 0 
150 3 2 1.00000000 128.19999695 349.64453888 -66.04880524 82.73236847 2 0 0 
151 4 2 1.00000000 128.19999695 -331.69971466 432.18744659 106.01131439 -2 2 1 
152 4 1 -1.00000000 129.10000610 -329.25865936 432.34578705 102.93026733 -2 2 0 
153 4 2 1.00000000 128.19999695 -325.95916748 431.42267799 102.64675903 -2 2 0 
154 4 2 1.00000000 128.19999695 -324.46025848 428.35525322 100.16873169 -2 2 0 
155 4 2 1.00000000 128.19999695 -326.99510193 425.27256489 100.05027771 -2 2 0 
156 4 1 -1.00000000 129.10000610 -328.25370026 425.29677677 96.40660095 -2 2 0 
157 4 2 1.00000000 128.19999695 -330.78770447 425.59241295 93.55514526 -2 2 0 
158 4 1 -1.00000000 129.10000610 -334.54324341 423.76546669 92.85404968 -2 2 0 
159 4 1 -1.00000000 129.10000610 -338.29801178 425.43717670 92.32193756 -2 2 0 
160 4 1 -1.00000000 129.10000610 -341.84588623 426.80984116 92.47750092 -2 2 0 
161 4 2 1.00000000 128.19999695 -343.82488251 424.23716354 90.80695343 -2 2 0 
162 4 1 -1.00000000 129.10000610 -341.52862549 422.28452826 88.60503387 -2 2 0 
163 4 1 -1.00000000 129.10000610 -338.48016357 422.30200100 86.96349335 -2 2 0 
164 4 1 -1.00000000 129.10000610 -336.32135773 419.63389683 88.58989716 -2 2 0 
165 4 2 1.00000000 128.19999695 -334.84117889 416.65777230 91.11510468 -2 2 0 
166 4 2 1.00000000 128.19999695 -332.23390961 418.22251630 93.51343536 -2 2 0 
167 4 1 -1.00000000 129.10000610 -334.30041504 417.65701270 96.94593048 -2 2 0 
168 4 1 -1.00000000 129.10000610 -332.15631104 416.04396534 99.80242920 -2 2 0 
169 4 2 1.00000000 128.19999695 -329.22595978 418.07033968 100.62999725 -2 2 0 
170 4 1 -1.00000000 129.10000610 -325.67834473 417.13757610 101.52822113 -2 2 0 
171 4 1 -1.00000000 129.10000610 -326.04544067 413.53158438 102.03727722 -2 2 0 
172 4 1 -1.00000000 129.10000610 -324.32190704 410.28144789 102.70024109 -2 2 0 
173 4 2 1.00000000 128.19999695 -322.51919556 408.91883755 105.84954834 -2 2 1 
174 4 1 -1.00000000 129.10000610 -321.79908752 404.85957527 105.17834473 -2 2 1 
175 4 1 -1.00000000 129.10000610 -322.26618958 404.54601955 101.60085297 -2 2 0 
176 4 2 1.00000000 128.19999695 -318.89511871 405.68150043 99.78173828 -2 2 0 
177 4 2 1.00000000 128.19999695 -317.11148071 405.23195839 96.55574799 -2 2 0 
178 4 2 1.00000000 128.19999695 -319.21142578 403.55736160 93.76830292 -2 2 0 
179 4 2 1.00000000 128.19999695 -323.00929260 403.94929409 93.41321564 -2 2 0 
180 4 2 1.00000000 128.19999695 -325.76425934 401.75364208 94.93180847 -2 2 0 
181 4 1 -1.00000000 129.10000610 -323.39938354 398.83355427 96.18043518 -2 2 0 
182 4 1 -1.00000000 129.10000610 -319.54391479 398.04912376 94.43581390 -2 2 0 
183 4 1 -1.00000000 129.10000610 -317.18249512 398.11162186 91.66898346 -2 2 0 
184 4 2 1.00000000 128.19999695 -314.91964722 400.41803741 90.12331390 -2 2 0 
185 4 2 1.00000000 128.19999695 -312.01881409 402.09993935 91.27980042 -2 2 0 
186 4 2 1.00000000 128.19999695 -310.27190399 405.68412685 91.55915833 -1 2 0 
187 4 1 -1.00000000 129.10000610 -309.88133240 409.51063251 91.97441101 -1 2 0 
188 4 2 1.00000000 128.19999695 -307.30014801 412.11474252 93.74809265 -1 2 0 
189 4 1 -1.00000000 129.10000610 -304.07157135 410.53207302 93.87177277 -1 2 0 
190 4 1 -1.00000000 129.10000610 -301.50717163 408.29447317 95.44067383 -1 2 0 
191 4 1 -1.00000000 129.10000610 -301.07803345 409.16153908 99.07987213 -1 2 0 
192 4 2 1.00000000 128.19999695 -301.33789825 406.60718250 101.98074341 -1 2 0 
193 4 1 -1.00000000 129.10000610 -299.65876770 408.68740368 104.80972290 -1 2 1 
194 4 2 1.00000000 128.19999695 -296.72339630 410.55883837 103.16547394 -1 2 0 
195 4 2 1.00000000 128.19999695 -296.14451599 413.86243165 105.19782257 -1 2 1 
196 4 2 1.00000000 128.19999695 -294.35771942 415.00134692 108.61840820 -1 2 1 
197 4 1 -1.00000000 129.10000610 -296.85894012 417.61192679 109.93601990 -1 2 1 
198 4 2 1.00000000 128.19999695 -297.83357239 421.30440140 111.15473938 -1 2 1 
199 4 1 -1.00000000 129.10000610 -298.61684418 424.01750374 113.46469116 -1 2 1 
200 4 2 1.00000000 128.19999695 -300.13056183 422.24387074 116.52966309 -1 2 1 
201 5 2 1.00000000 128.19999695 -307.39706421 -266.75381851 -272.39832306 -1 -1 -1 
202 5 1 -1.00000000 129.10000610 -311.07053375 -268.63251495 -274.01473999 -2 -1 -1 
203 5 2 1.00000000 128.19999695 -313.93947601 -269.98844147 -275.86053467 -2 -1 -1 
204 5 2 1.00000000 128.19999695 -313.48820496 -273.19387054 -277.74420929 -2 -1 -1 
205 5 2 1.00000000 128.19999695 -311.55941010 -276.73112488 -278.30410767 -2 -1 -1 
206 5 1 -1.00000000 129.10000610 -310.44277954 -278.12244415 -281.41058350 -1 -1 -1 
207 5 2 1.00000000 128.19999695 -309.55908966 -279.60018921 -284.86948395 -1 -1 -1 
208 5 1 -1.00000000 129.10000610 -311.04658508 -279.20633698 -288.50704193 -2 -1 -1 
209 5 1 -1.00000000 129.10000610 -312.72986603 -276.91716766 -291.04958344 -2 -1 -1 
210 5 1 -1.00000000 129.10000610 -316.45922852 -277.41950226 -291.68987274 -2 -1 -1 
211 5 2 1.00000000 128.19999695 -320.15335083 -276.68669891 -292.41902924 -2 -1 -1 
212 5 1 -1.00000000 129.10000610 -323.47968292 -277.20521545 -294.14912415 -2 -1 -1 
213 5 1 -1.00000000 129.10000610 -325.05780792 -276.78395081 -297.72766876 -2 -1 -1 
214 5 1 -1.00000000 129.10000610 -323.38691711 -275.42968750 -300.19463348 -2 -1 -1 
215 5 2 1.00000000 128.19999695 -321.21231842 -276.46027374 -303.73165131 -2 -1 -1 
216 5 2 1.00000000 128.19999695 -318.16941833 -276.75469208 -301.66005707 -2 -1 -1 
217 5 1 -1.00000000 129.10000610 -315.26159668 -278.58040619 -299.71849060 -2 -1 -1 
218 5 1 -1.00000000 129.10000610 -312.40354919 -279.02669525 -302.40326691 -2 -1 -1 
219 5 2 1.00000000 128.19999695 -312.25963593 -280.93707275 -305.62305450 -2 -1 -1 
220 5 1 -1.00000000 129.10000610 -315.40694427 -282.19335175 -307.69786835 -2 -1 -1 
221 5 1 -1.00000000 129.10000610 -318.50433350 -283.34545135 -309.35906982 -2 -1 -1 
222 5 1 -1.00000000 129.10000610 -322.11509705 -282.89945221 -307.80585480 -2 -1 -1 
223 5 2 1.00000000 128.19999695 -325.45077515 -283.77422333 -306.45115662 -2 -1 -1 
224 5 1 -1.00000000 129.10000610 -324.78613281 -286.58238220 -303.91426086 -2 -1 -1 
225 5 1 -1.00000000 129.10000610 -323.94519806 -290.32668304 -304.35321808 -2 -1 -1 
226 5 2 1.00000000 128.19999695 -321.42416382 -290.76711273 -307.65460968 -2 -1 -1 
227 5 2 1.00000000 128.19999695 -324.46044922 -290.95135498 -309.98191071 -2 -1 -1 
228 5 2 1.00000000 128.19999695 -325.29071045 -288.27510834 -313.10449982 -2 -1 -2 
229 5 2 1.00000000 128.19999695 -322.76885986 -287.21105957 -315.56304169 -2 -1 -2 
230 5 2 1.00000000 128.19999695 -322.47602081 -286.04324341 -319.09764862 -2 -1 -2 
231 5 1 -1.00000000 129.10000610 -322.53429413 -287.70862579 -322.57251740 -2 -1 -2 
232 5 1 -1.00000000 129.10000610 -320.65473938 -290.92053986 -322.92086792 -2 -1 -2 
233 5 1 -1.00000000 129.10000610 -317.59890747 -292.35993958 -324.17183685 -2 -1 -2 
234 5 2 1.00000000 128.19999695 -315.81242371 -293.12354279 -321.16196442 -2 -1 -2 
235 5 2 1.00000000 128.19999695 -315.51921082 -297.27796936 -320.67638397 -2 -1 -2 
236 5 2 1.00000000 128.19999695 -314.63952637 -297.01000214 -316.90129852 -2 -1 -2 
237 5 1 -1.00000000 129.10000610 -311.52388763 -295.39728546 -315.82492828 -2 -1 -2 
238 5 2 1.00000000 128.19999695 -308.49874115 -294.32564545 -317.76038361 -1 -1 -2 
239 5 1 -1.00000000 129.10000610 -305.62817383 -295.06002808 -315.48885345 -1 -1 -2 
240 5 1 -1.00000000 129.10000610 -304.63146973 -294.74630737 -312.17166901 -1 -1 -2 
241 5 1 -1.00000000 129.10000610 -301.96284485 -294.02584839 -309.57212830 -1 -1 -1 
242 5 2 1.00000000 128.19999695 -300.41490173 -290.89379883 -308.49555206 -1 -1 -1 
243 5 1 -1.00000000 129.10000610 -303.14188385 -288.62712097 -306.88984680 -1 -1 -1 
244 5 2 1.00000000 128.19999695 -305.85317230 -289.22570801 -304.42559052 -1 -1 -1 
245 5 2 1.00000000 128.19999695 -306.74587250 -292.82919312 -303.76795197 -1 -1 -1 
246 5 2 1.00000000 128.19999695 -310.20334625 -293.61723328 -302.22673035 -1 -1 -1 
247 5 1 -1.00000000 129.10000610 -310.92954254 -295.99457550 -305.38276672 -1 -1 -1 
248 5 2 1.00000000 128.19999695 -312.61851501 -295.16841125 -308.72473907 -2 -1 -1 
249 5 1 -1.00000000 129.10000610 -313.91198730 -292.65365601 -311.34463501 -2 -1 -2 
250 5 2 1.00000000 128.19999695 -316.38413239 -291.32337189 -313.94659424 -2 -1 -2 
251 6 2 1.00000000 128.19999695 489.54946899 -396.52860641 -108.10765076 2 -2 -1 
252 6 1 -1.00000000 129.10000610 486.50893402 -395.08082199 -106.49440765 2 -2 -1 
253 6 2 1.00000000 128.19999695 483.17293549 -395.59458923 -108.30936432 2 -2 -1 
254 6 2 1.00000000 128.19999695 480.96971893 -392.46581650 -107.29922485 2 -2 -1 
255 6 2 1.00000000 128.19999695 478.76547241 -390.78870010 -104.81150055 2 -2 -1 
256 6 1 -1.00000000 129.10000610 479.63626099 -388.25933266 -102.26419067 2 -2 0 
257 6 2 1.00000000 128.19999695 478.74961090 -384.26931381 -102.33786011 2 -2 0 
258 6 1 -1.00000000 129.10000610 475.93962860 -382.62138748 -100.29692841 2 -2 0 
259 6 1 -1.00000000 129.10000610 472.79722977 -380.96119308 -100.26956940 2 -2 0 
260 6 1 -1.00000000 129.10000610 469.20899582 -380.52758789 -100.58767700 2 -2 0 
261 6 2 1.00000000 128.19999695 466.85742569 -377.76697159 -101.90573120 2 -2 0 
262 6 1 -1.00000000 129.10000610 465.74939728 -377.76924896 -105.58282471 2 -2 -1 
263 6 1 -1.00000000 129.10000610 465.84839249 -379.14675903 -109.01854706 2 -2 -1 
264 6 1 -1.00000000 129.10000610 467.90659332 -377.15491104 -112.20065308 2 -2 -1 
265 6 2 1.00000000 128.19999695 468.18411636 -373.31994247 -112.91154480 2 -2 -1 
266 6 2 1.00000000 128.19999695 467.32684708 -372.20705795 -116.55921173 2 -2 -1 
267 6 1 -1.00000000 129.10000610 465.58964920 -369.83073044 -118.64196777 2 -2 -1 
268 6 1 -1.00000000 129.10000610 462.30151367 -367.82747650 -119.20326233 2 -2 -1 
269 6 2 1.00000000 128.19999695 459.99369431 -369.14133072 -116.13958740 2 -2 -1 
270 6 1 -1.00000000 129.10000610 457.13682556 -369.70297623 -118.83449554 2 -2 -1 
271 6 1 -1.00000000 129.10000610 455.54853058 -372.50704956 -116.57530975 2 -2 -1 
272 6 1 -1.00000000 129.10000610 452.57367706 -373.33568573 -118.39356232 2 -2 -1 
273 6 2 1.00000000 128.19999695 453.32970810 -376.16057587 -121.04381561 2 -2 -1 
274 6 1 -1.00000000 129.10000610 452.22970581 -379.59405899 -121.06542969 2 -2 -1 
275 6 1 -1.00000000 129.10000610 452.76309204 -382.77799225 -123.39389801 2 -2 -1 
276 6 2 1.00000000 128.19999695 452.71025848 -384.45039749 -126.98463440 2 -2 -1 
277 6 2 1.00000000 128.19999695 455.32614899 -384.46724129 -129.96836853 2 -2 -1 
278 6 2 1.00000000 128.19999695 458.06412506 -386.01923752 -131.74732208 2 -2 -1 
279 6 2 1.00000000 128.19999695 461.57572937 -386.58977890 -132.64789581 2 -2 -1 
280 6 2 1.00000000 128.19999695 465.14231873 -387.33354187 -132.10333252 2 -2 -1 
281 6 1 -1.00000000 129.10000610 464.51753616 -391.05266762 -130.79373932 2 -2 -1 
282 6 1 -1.00000000 129.10000610 460.96004486 -392.36241341 -131.59469604 2 -2 -1 
283 6 1 -1.00000000 129.10000610 459.65985107 -392.65978813 -135.18996429 2 -2 -1 
284 6 2 1.00000000 128.19999695 460.87406158 -394.75249481 -138.16091919 2 -2 -1 
285 6 2 1.00000000 128.19999695 463.13773346 -396.95462799 -140.41697693 2 -2 -1 
286 6 2 1.00000000 128.19999695 464.51937103 -400.02227783 -138.73112488 2 -2 -1 
287 6 1 -1.00000000 129.10000610 466.64825058 -400.12884426 -135.86518097 2 -2 -1 
288 6 2 1.00000000 128.19999695 469.74609756 -402.39704704 -135.51110077 2 -2 -1 
289 6 1 -1.00000000 129.10000610 471.43690109 -403.38367271 -132.10887146 2 -2 -1 
290 6 1 -1.00000000 129.10000610 470.40762329 -406.71804094 -131.12401581 2 -2 -1 
291 6 1 -1.00000000 129.10000610 470.12059021 -408.66387749 -127.66037750 2 -2 -1 
292 6 2 1.00000000 128.19999695 470.96103668 -409.23780346 -124.13301086 2 -2 -1 
293 6 1 -1.00000000 129.10000610 469.46036148 -412.76625180 -123.47982025 2 -2 -1 
294 6 2 1.00000000 128.19999695 467.82501221 -412.68635917 -120.02102661 2 -2 -1 
295 6 2 1.00000000 128.19999695 467.58034897 -412.47654963 -116.31896210 2 -2 -1 
296 6 2 1.00000000 128.19999695 469.17936707 -414.10501796 -113.20379639 2 -2 -1 
297 6 1 -1.00000000 129.10000610 469.11247253 -411.74776006 -110.08174896 2 -2 -1 
298 6 2 1.00000000 128.19999695 468.76343155 -411.56748819 -106.24275208 2 -2 -1 
299 6 1 -1.00000000 129.10000610 472.22396088 -411.63594341 -104.65713501 2 -2 -1 
300 6 2 1.00000000 128.19999695 475.24242783 -409.03518486 -104.41763306 2 -2 -1 
301 7 2 1.00000000 128.19999695 -30.13807678 -63.43643951 -853.69221497 0 0 -4 
302 7 1 -1.00000000 129.10000610 -32.42090607 -65.65378571 -856.00907516 0 0 -4 
303 7 2 1.00000000 128.19999695 -33.69060135 -66.27583313 -859.57107353 0 0 -4 
304 7 2 1.00000000 128.19999695 -35.53711319 -64.80926514 -862.50849533 0 0 -4 
305 7 2 1.00000000 128.19999695 -38.48025131 -62.64947510 -863.96942139 0 0 -4 
306 7 1 -1.00000000 129.10000610 -42.09226608 -61.31102371 -865.11244202 0 0 -4 
307 7 2 1.00000000 128.19999695 -42.93930054 -60.42316818 -868.48866653 0 0 -4 
308 7 1 -1.00000000 129.10000610 -41.82089996 -62.13059235 -871.64281845 0 0 -4 
309 7 1 -1.00000000 129.10000610 -39.08417511 -59.62619400 -873.28773880 0 0 -4 
310 7 1 -1.00000000 129.10000610 -35.76144028 -59.95384598 -875.87945557 0 0 -4 
311 7 2 1.00000000 128.19999695 -34.56304169 -56.87819672 -878.15800858 0 0 -4 
312 7 1 -1.00000000 129.10000610 -33.56307220 -55.42653656 -881.56803131 0 0 -4 
313 7 1 -1.00000000 129.10000610 -33.40081787 -51.45436096 -881.36034775 0 0 -4 
314 7 1 -1.00000000 129.10000610 -32.96488190 -48.62039948 -878.92312241 0 0 -4 
315 7 2 1.00000000 128.19999695 -32.84848404 -48.32511902 -875.12238693 0 0 -4 
316 7 2 1.00000000 128.19999695 -33.50260544 -46.75547028 -871.88242722 0 0 -4 
317 7 1 -1.00000000 129.10000610 -34.74372482 -44.27393723 -869.51274109 0 0 -4 
318 7 1 -1.00000000 129.10000610 -32.54045105 -41.04813766 -869.34693527 0 0 -4 
319 7 2 1.00000000 128.19999695 -31.58437538 -37.48909378 -870.36920166 0 0 -4 
320 7 1 -1.00000000 129.10000610 -33.26571655 -33.95864868 -869.74239349 0 0 -4 
321 7 1 -1.00000000 129.10000610 -31.13289261 -31.34735870 -867.83417511 0 0 -4 
322 7 1 -1.00000000 129.10000610 -28.96717834 -30.05538750 -870.61139297 0 0 -4 
323 7 2 1.00000000 128.19999695 -30.38572502 -29.35173416 -874.24195480 0 0 -4 
324 7 1 -1.00000000 129.10000610 -29.71525192 -30.19804382 -877.78582764 0 0 -4 
325 7 1 -1.00000000 129.10000610 -29.86395645 -30.34391785 -881.49161148 0 0 -4 
326 7 2 1.00000000 128.19999695 -28.61122704 -26.71979523 -882.75510406 0 0 -4 
327 7 2 1.00000000 128.19999695 -29.27625465 -23.33800125 -883.87142944 0 0 -4 
328 7 2 1.00000000 128.19999695 -27.45621872 -21.41448402 -886.71194458 0 0 -4 
329 7 2 1.00000000 128.19999695 -25.23167610 -19.40165329 -889.06758499 0 0 -4 
330 7 2 1.00000000 128.19999695 -24.73765945 -17.11062050 -891.75201416 0 0 -4 
331 7 1 -1.00000000 129.10000610 -23.45540237 -18.99506760 -895.03624725 0 0 -4 
332 7 1 -1.00000000 129.10000610 -19.70805168 -20.32345200 -895.01291656 0 0 -4 
333 7 1 -1.00000000 129.10000610 -17.73497391 -18.78482819 -897.96920776 0 0 -4 
334 7 2 1.00000000 128.19999695 -15.34105301 -15.76500702 -898.58385468 0 0 -4 
335 7 2 1.00000000 128.19999695 -16.59288788 -12.55871868 -900.38040161 0 0 -4 
336 7 2 1.00000000 128.19999695 -17.60589409 -10.57264614 -903.43576813 0 0 -4 
337 7 1 -1.00000000 129.10000610 -17.46619987 -7.11055660 -904.74878693 0 0 -4 
338 7 2 1.00000000 128.19999695 -18.33175850 -3.85020852 -902.80361938 0 0 -4 
339 7 1 -1.00000000 129.10000610 -17.84597206 -3.45314956 -898.94881439 0 0 -4 
340 7 1 -1.00000000 129.10000610 -15.73541164 -1.26394987 -896.53387451 0 0 -4 
341 7 1 -1.00000000 129.10000610 -17.73211861 1.93483472 -896.23097229 0 0 -4 
342 7 2 1.00000000 128.19999695 -20.37860107 2.40511036 -894.03776550 0 0 -4 
343 7 1 -1.00000000 129.10000610 -22.09395599 5.62057877 -894.08737946 0 0 -4 
344 7 2 1.00000000 128.19999695 -23.06767654 8.71509647 -892.56796646 0 0 -4 
345 7 2 1.00000000 128.19999695 -21.25379372 10.84013653 -890.11913300 0 0 -4 
346 7 2 1.00000000 128.19999695 -17.82460403 12.45716953 -890.36363220 0 0 -4 
347 7 1 -1.00000000 129.10000610 -18.50119972 16.08118820 -891.91616821 0 0 -4 
348 7 2 1.00000000 128.19999695 -21.09455681 18.00340271 -890.58041382 0 0 -4 
349 7 1 -1.00000000 129.10000610 -23.59598541 20.68951225 -889.54597473 0 0 -4 
350 7 2 1.00000000 128.19999695 -25.35136032 22.57359314 -887.10531616 0 0 -4 
351 8 2 1.00000000 128.19999695 3.66783524 -67.83341217 669.36268616 0 0 3 
352 8 1 -1.00000000 129.10000610 7.35167217 -68.03117371 667.91808319 0 0 3 
353 8 2 1.00000000 128.19999695 8.41168022 -68.92275238 664.57894897 0 0 3 
354 8 2 1.00000000 128.19999695 9.71636295 -71.64527130 662.14913559 0 0 3 
355 8 2 1.00000000 128.19999695 13.48981953 -72.43455505 663.40993881 0 0 3 
356 8 1 -1.00000000 129.10000610 13.60781765 -73.77902222 666.85462570 0 0 3 
357 8 2 1.00000000 128.19999695 10.46594143 -75.67839813 668.19380188 0 0 3 
358 8 1 -1.00000000 129.10000610 6.86554813 -76.94656372 667.11549759 0 0 3 
359 8 1 -1.00000000 129.10000610 7.21483994 -79.06090546 663.52935028 0 0 3 
360 8 1 -1.00000000 129.10000610 9.97760582 -81.11195374 663.37758636 0 0 3 
361 8 2 1.00000000 128.19999695 10.98355007 -82.33383942 659.73663712 0 0 3 
362 8 1 -1.00000000 129.10000610 7.65902376 -81.86663818 657.49961472 0 0 3 
363 8 1 -1.00000000 129.10000610 4.86886549 -80.78997040 655.23424149 0 0 3 
364 8 1 -1.00000000 129.10000610 2.13364863 -82.83013153 653.19130135 0 0 3 
365 8 2 1.00000000 128.19999695 1.19769514 -85.86563873 651.58691216 0 0 3 
366 8 2 1.00000000 128.19999695 -0.18176283 -89.05577850 652.76656914 0 0 3 
367 8 1 -1.00000000 129.10000610 -2.57882309 -87.58860016 655.13700485 0 0 3 
368 8 1 -1.00000000 129.10000610 -1.98039627 -85.30663300 658.13234711 0 0 3 
369 8 2 1.00000000 128.19999695 0.28858081 -84.02603912 660.44446945 0 0 3 