ITEM: TIMESTEP
42700000 
ITEM: NUMBER OF ATOMS 
25000 
ITEM: BOX BOUNDS pp pp pp 
-103.678017 103.678017 
-103.678017 103.678017 
-103.678017 103.678017 
ITEM: ATOMS id mol type q mass xu yu zu ix iy iz 
1 1 2 1.00000000 128.19999695 464.93282318 -124.96231842 -281.72713470 2 -1 -1 
2 1 1 -1.00000000 129.10000610 465.43639374 -128.36374664 -283.66710663 2 -1 -1 
3 1 2 1.00000000 128.19999695 466.31380844 -131.25601959 -285.44181061 2 -1 -1 
4 1 2 1.00000000 128.19999695 467.32570267 -131.51882935 -289.17597961 2 -1 -1 
5 1 2 1.00000000 128.19999695 469.94988251 -130.14983368 -291.34566498 2 -1 -1 
6 1 1 -1.00000000 129.10000610 470.45267487 -127.72689056 -293.91535950 2 -1 -1 
7 1 2 1.00000000 128.19999695 472.42191696 -127.95550537 -297.67276764 2 -1 -1 
8 1 1 -1.00000000 129.10000610 474.45604706 -127.82106018 -300.91587067 2 -1 -1 
9 1 1 -1.00000000 129.10000610 472.96398544 -124.26149750 -301.95431519 2 -1 -1 
10 1 1 -1.00000000 129.10000610 475.96492004 -121.56681061 -302.04887390 2 -1 -1 
11 1 2 1.00000000 128.19999695 478.70812225 -119.72720337 -301.18444824 2 -1 -1 
12 1 1 -1.00000000 129.10000610 478.15115356 -119.17728424 -297.46674347 2 -1 -1 
13 1 1 -1.00000000 129.10000610 476.09245300 -116.22549438 -296.23019409 2 -1 -1 
14 1 1 -1.00000000 129.10000610 477.45953751 -112.69481659 -297.56922913 2 -1 -1 
15 1 2 1.00000000 128.19999695 475.13203430 -111.27536774 -300.12563324 2 -1 -1 
16 1 2 1.00000000 128.19999695 473.56885147 -111.51765442 -303.66847229 2 -1 -1 
17 1 1 -1.00000000 129.10000610 471.06926727 -110.83661652 -306.70527649 2 -1 -1 
18 1 1 -1.00000000 129.10000610 473.45228958 -111.78537750 -309.78973389 2 -1 -1 
19 1 2 1.00000000 128.19999695 475.30116653 -108.82573700 -311.43614197 2 -1 -2 
20 1 1 -1.00000000 129.10000610 478.93431091 -109.04668427 -312.88957214 2 -1 -2 
21 1 1 -1.00000000 129.10000610 481.29549408 -111.29653168 -311.02610779 2 -1 -1 
22 1 1 -1.00000000 129.10000610 479.84127045 -113.79353333 -308.66643524 2 -1 -1 
23 1 2 1.00000000 128.19999695 478.99488068 -116.81009674 -310.68995667 2 -1 -1 
24 1 1 -1.00000000 129.10000610 481.45481110 -118.05301666 -313.40972137 2 -1 -2 
25 1 1 -1.00000000 129.10000610 481.96450806 -121.63744354 -312.16589355 2 -1 -2 
26 1 2 1.00000000 128.19999695 482.84547424 -123.71217346 -309.30230713 2 -1 -1 
27 1 2 1.00000000 128.19999695 482.65502167 -123.06900787 -305.69047546 2 -1 -1 
28 1 2 1.00000000 128.19999695 484.81176758 -119.89267731 -304.97877502 2 -1 -1 
29 1 2 1.00000000 128.19999695 486.36363220 -116.72062683 -303.86614227 2 -1 -1 
30 1 2 1.00000000 128.19999695 487.10227203 -113.81970978 -306.05243683 2 -1 -1 
31 1 1 -1.00000000 129.10000610 488.71340942 -110.32843018 -304.63298798 2 -1 -1 
32 1 1 -1.00000000 129.10000610 492.57508087 -110.14403534 -304.86080933 2 -1 -1 
33 1 1 -1.00000000 129.10000610 494.05554962 -109.28051758 -308.17733002 2 -1 -1 
34 1 2 1.00000000 128.19999695 494.42638397 -112.51093292 -310.44913483 2 -1 -1 
35 1 2 1.00000000 128.19999695 493.96643066 -114.16825104 -314.18087769 2 -1 -2 
36 1 2 1.00000000 128.19999695 493.06716919 -112.48477173 -317.52637482 2 -1 -2 
37 1 1 -1.00000000 129.10000610 493.30089569 -114.93173981 -320.57804108 2 -1 -2 
38 1 2 1.00000000 128.19999695 493.73346710 -117.86842346 -322.86016846 2 -1 -2 
39 1 1 -1.00000000 129.10000610 492.40121460 -116.04843903 -326.56355286 2 -1 -2 
40 1 1 -1.00000000 129.10000610 488.97534943 -114.86495972 -327.36121368 2 -1 -2 
41 1 1 -1.00000000 129.10000610 485.89395905 -116.17180634 -325.91709137 2 -1 -2 
42 1 2 1.00000000 128.19999695 482.32039642 -115.23519897 -326.51791382 2 -1 -2 
43 1 1 -1.00000000 129.10000610 480.86193085 -116.17681885 -322.97689819 2 -1 -2 
44 1 2 1.00000000 128.19999695 480.33410645 -118.77299500 -320.50360107 2 -1 -2 
45 1 2 1.00000000 128.19999695 476.73263550 -118.36255646 -319.23808289 2 -1 -2 
46 1 2 1.00000000 128.19999695 474.19552231 -115.73239136 -319.10701752 2 -1 -2 
47 1 1 -1.00000000 129.10000610 471.48958969 -115.12732697 -316.93503571 2 -1 -2 
48 1 2 1.00000000 128.19999695 468.04760361 -115.17655945 -315.99075317 2 -1 -2 
49 1 1 -1.00000000 129.10000610 466.64933395 -113.48258209 -312.63265991 2 -1 -2 
50 1 2 1.00000000 128.19999695 467.18057632 -109.71574402 -312.33091736 2 -1 -2 
51 2 2 1.00000000 128.19999695 469.30986786 369.32554626 -349.19040680 2 2 -2 
52 2 1 -1.00000000 129.10000610 470.57443237 367.92467499 -345.84243774 2 2 -2 
53 2 2 1.00000000 128.19999695 470.57936096 365.70215607 -343.12651825 2 2 -2 
54 2 2 1.00000000 128.19999695 467.10085678 364.48183823 -342.90064240 2 2 -2 
55 2 2 1.00000000 128.19999695 465.20418549 364.30566406 -346.08946991 2 2 -2 
56 2 1 -1.00000000 129.10000610 461.68116379 365.42634583 -345.64415741 2 2 -2 
57 2 2 1.00000000 128.19999695 462.00720215 369.04115295 -343.88819122 2 2 -2 
58 2 1 -1.00000000 129.10000610 463.29360199 371.32040787 -341.35525513 2 2 -2 
59 2 1 -1.00000000 129.10000610 465.50786972 370.93522644 -338.02365112 2 2 -2 
60 2 1 -1.00000000 129.10000610 462.70072174 372.18183899 -335.43951416 2 2 -2 
61 2 2 1.00000000 128.19999695 459.06780624 372.31329727 -333.92507172 2 2 -2 
62 2 1 -1.00000000 129.10000610 456.46237564 375.04542923 -334.56001282 2 2 -2 
63 2 1 -1.00000000 129.10000610 453.89075089 376.70911789 -336.89870453 2 2 -2 
64 2 1 -1.00000000 129.10000610 455.59008789 374.93230438 -340.06595612 2 2 -2 
65 2 2 1.00000000 128.19999695 454.61404419 377.09358978 -342.95764923 2 2 -2 
66 2 2 1.00000000 128.19999695 455.20393753 380.78257370 -342.93592072 2 2 -2 
67 2 1 -1.00000000 129.10000610 458.10042953 381.96340561 -345.09706879 2 2 -2 
68 2 1 -1.00000000 129.10000610 458.24803925 385.25062180 -346.85970306 2 2 -2 
69 2 2 1.00000000 128.19999695 459.61766434 388.58898163 -348.32716370 2 2 -2 
70 2 1 -1.00000000 129.10000610 461.68196106 391.95889664 -347.77217865 2 2 -2 
71 2 1 -1.00000000 129.10000610 458.36001968 394.08142471 -347.02816772 2 2 -2 
72 2 1 -1.00000000 129.10000610 455.30797577 395.28368950 -344.83181000 2 2 -2 
73 2 2 1.00000000 128.19999695 451.35060501 394.12014008 -345.35173798 2 2 -2 
74 2 1 -1.00000000 129.10000610 448.24144745 391.97034073 -344.30946350 2 2 -2 
75 2 1 -1.00000000 129.10000610 446.18856049 392.49302864 -341.53349304 2 2 -2 
76 2 2 1.00000000 128.19999695 444.81923294 395.72818947 -340.09565735 2 2 -2 
77 2 2 1.00000000 128.19999695 441.00875473 396.25886345 -339.60207367 2 2 -2 
78 2 2 1.00000000 128.19999695 439.14971924 394.36090660 -342.35269165 2 2 -2 
79 2 2 1.00000000 128.19999695 435.13162041 393.92552757 -342.13239288 2 2 -2 
80 2 2 1.00000000 128.19999695 432.29703331 396.33949471 -342.22803497 2 2 -2 
81 2 1 -1.00000000 129.10000610 428.65504360 395.54345703 -341.72409821 2 2 -2 
82 2 1 -1.00000000 129.10000610 427.34730911 398.48149490 -339.86650848 2 2 -2 
83 2 1 -1.00000000 129.10000610 424.98223972 398.87421417 -336.90819550 2 2 -2 
84 2 2 1.00000000 128.19999695 423.28171444 400.82048321 -334.33013153 2 2 -2 
85 2 2 1.00000000 128.19999695 420.49963188 403.08553123 -333.47921753 2 2 -2 
86 2 2 1.00000000 128.19999695 420.18923092 406.72940540 -332.47496796 2 2 -2 
87 2 1 -1.00000000 129.10000610 419.31340837 409.28855944 -330.25904083 2 2 -2 
88 2 2 1.00000000 128.19999695 417.90772724 408.60487795 -326.75077820 2 2 -2 
89 2 1 -1.00000000 129.10000610 414.72389120 409.87022209 -325.11991882 2 2 -2 
90 2 1 -1.00000000 129.10000610 413.92305094 413.77046555 -325.56815338 2 2 -2 
91 2 1 -1.00000000 129.10000610 415.20980310 417.07747173 -325.84058380 2 2 -2 
92 2 2 1.00000000 128.19999695 417.54829574 418.65748978 -323.08952332 2 2 -2 
93 2 1 -1.00000000 129.10000610 420.25103140 421.21279907 -322.88752747 2 2 -2 
94 2 2 1.00000000 128.19999695 423.51992321 423.37395859 -322.72692108 2 2 -2 
95 2 2 1.00000000 128.19999695 426.03139973 421.12090635 -320.73912048 2 2 -2 
96 2 2 1.00000000 128.19999695 427.02645969 418.46020317 -323.30412292 2 2 -2 
97 2 1 -1.00000000 129.10000610 430.61877728 419.73129511 -323.41957092 2 2 -2 
98 2 2 1.00000000 128.19999695 432.99662209 417.87089992 -326.14910126 2 2 -2 
99 2 1 -1.00000000 129.10000610 435.51790619 420.28490067 -327.75133514 2 2 -2 
100 2 2 1.00000000 128.19999695 438.19664764 423.01313782 -326.73898315 2 2 -2 
101 3 2 1.00000000 128.19999695 340.44456482 -112.18862915 95.47496796 2 -1 0 
102 3 1 -1.00000000 129.10000610 342.52253723 -110.23345947 92.79498291 2 -1 0 
103 3 2 1.00000000 128.19999695 343.01090240 -107.04552460 90.50534058 2 -1 0 
104 3 2 1.00000000 128.19999695 340.53144836 -104.45198822 88.87331390 2 -1 0 
105 3 2 1.00000000 128.19999695 339.19437408 -100.78205872 89.74505615 2 0 0 
106 3 1 -1.00000000 129.10000610 339.25798798 -97.28232574 89.33872223 2 0 0 
107 3 2 1.00000000 128.19999695 336.73319244 -95.92687988 86.99623108 2 0 0 
108 3 1 -1.00000000 129.10000610 334.46903229 -94.79495239 84.13942719 2 0 0 
109 3 1 -1.00000000 129.10000610 330.64029694 -95.46950531 84.83670807 2 0 0 
110 3 1 -1.00000000 129.10000610 330.99024963 -99.30368805 84.49537659 2 0 0 
111 3 2 1.00000000 128.19999695 329.57037354 -102.42640686 84.66735077 2 0 0 
112 3 1 -1.00000000 129.10000610 327.10958862 -103.71940613 81.86262512 2 -1 0 
113 3 1 -1.00000000 129.10000610 325.68395233 -105.89187622 79.21072388 2 -1 0 
114 3 1 -1.00000000 129.10000610 322.16600800 -106.73661804 78.22048187 2 -1 0 
115 3 2 1.00000000 128.19999695 322.03564453 -109.82303619 76.31688690 2 -1 0 
116 3 2 1.00000000 128.19999695 321.09007263 -113.03110504 78.02225494 2 -1 0 
117 3 1 -1.00000000 129.10000610 320.33203888 -114.87254333 81.44725037 2 -1 0 
118 3 1 -1.00000000 129.10000610 316.94429016 -116.81667328 80.64582825 2 -1 0 
119 3 2 1.00000000 128.19999695 316.40119934 -117.68744659 77.06842041 2 -1 0 
120 3 1 -1.00000000 129.10000610 315.85504913 -116.18875885 73.39794159 2 -1 0 
121 3 1 -1.00000000 129.10000610 313.59575653 -117.25132751 70.23087311 2 -1 0 
122 3 1 -1.00000000 129.10000610 312.03753662 -113.85150146 69.57089996 2 -1 0 
123 3 2 1.00000000 128.19999695 315.13261414 -111.78688049 68.79141235 2 -1 0 
124 3 1 -1.00000000 129.10000610 318.86610413 -111.33964539 69.96889496 2 -1 0 
125 3 1 -1.00000000 129.10000610 320.45452881 -109.31797791 67.03945923 2 -1 0 
126 3 2 1.00000000 128.19999695 319.31105042 -108.98054504 63.43162155 2 -1 0 
127 3 2 1.00000000 128.19999695 318.74758148 -105.31568909 62.74200821 2 -1 0 
128 3 2 1.00000000 128.19999695 318.37553406 -103.07102966 59.96509171 2 0 0 
129 3 2 1.00000000 128.19999695 316.25887299 -102.14793396 56.96944427 2 0 0 
130 3 2 1.00000000 128.19999695 313.31108856 -101.46237946 54.60607147 2 0 0 
131 3 1 -1.00000000 129.10000610 310.32825470 -101.59369659 51.89055252 1 0 0 
132 3 1 -1.00000000 129.10000610 309.35239410 -105.54334259 51.60561371 1 -1 0 
133 3 1 -1.00000000 129.10000610 306.77358246 -108.23474884 50.32042313 1 -1 0 
134 3 2 1.00000000 128.19999695 304.22686005 -106.60080719 48.58605957 1 -1 0 
135 3 2 1.00000000 128.19999695 303.42086029 -105.76961517 44.66635513 1 -1 0 
136 3 2 1.00000000 128.19999695 300.64579010 -103.95827484 42.98891068 1 -1 0 
137 3 1 -1.00000000 129.10000610 298.38505554 -102.05782318 40.36423874 1 0 0 
138 3 2 1.00000000 128.19999695 298.76605988 -102.30663300 36.62012863 1 0 0 
139 3 1 -1.00000000 129.10000610 301.95026398 -103.79770660 35.51515961 1 -1 0 
140 3 1 -1.00000000 129.10000610 301.87583923 -105.88447571 32.32332993 1 -1 0 
141 3 1 -1.00000000 129.10000610 303.48661041 -108.66481018 29.97115898 1 -1 0 
142 3 2 1.00000000 128.19999695 302.39111328 -112.32637787 31.41642380 1 -1 0 
143 3 1 -1.00000000 129.10000610 305.31015015 -113.87792969 33.10055542 1 -1 0 
144 3 2 1.00000000 128.19999695 305.95784760 -116.20904541 36.01115799 1 -1 0 
145 3 2 1.00000000 128.19999695 307.89402771 -119.57639313 36.45560455 1 -1 0 
146 3 2 1.00000000 128.19999695 310.95027161 -121.24404144 38.31691360 1 -1 0 
147 3 1 -1.00000000 129.10000610 312.92771912 -124.32147980 39.49315262 2 -1 0 
148 3 2 1.00000000 128.19999695 313.22442627 -127.79913330 37.99992371 2 -1 0 
149 3 1 -1.00000000 129.10000610 312.47416687 -131.06682587 39.93486023 2 -1 0 
150 3 2 1.00000000 128.19999695 312.21864319 -134.15994263 41.64176559 2 -1 0 
151 4 2 1.00000000 128.19999695 -303.21468353 408.48243189 50.46094131 -1 2 0 
152 4 1 -1.00000000 129.10000610 -300.95951080 411.23737931 51.50347900 -1 2 0 
153 4 2 1.00000000 128.19999695 -297.81747437 412.69144583 52.67424393 -1 2 0 
154 4 2 1.00000000 128.19999695 -296.28607941 415.31108582 54.98811722 -1 2 0 
155 4 2 1.00000000 128.19999695 -296.65740967 417.29984927 58.36875916 -1 2 0 
156 4 1 -1.00000000 129.10000610 -299.70770264 417.60653400 60.34634781 -1 2 0 
157 4 2 1.00000000 128.19999695 -303.15205383 418.59806108 59.55391312 -1 2 0 
158 4 1 -1.00000000 129.10000610 -305.98100281 416.60433722 60.83575439 -1 2 0 
159 4 1 -1.00000000 129.10000610 -306.62952423 415.00735217 64.02361298 -1 2 0 
160 4 1 -1.00000000 129.10000610 -306.22365570 416.84716749 67.27221680 -1 2 0 
161 4 2 1.00000000 128.19999695 -307.50601959 416.49209225 71.10330963 -1 2 0 
162 4 1 -1.00000000 129.10000610 -306.72370911 414.46498509 74.42878723 -1 2 0 
163 4 1 -1.00000000 129.10000610 -303.88568115 413.99141496 77.17637634 -1 2 0 
164 4 1 -1.00000000 129.10000610 -302.24775696 410.32565689 77.69423676 -1 2 0 
165 4 2 1.00000000 128.19999695 -305.86370850 408.40556049 77.99340057 -1 2 0 
166 4 2 1.00000000 128.19999695 -305.31037903 404.92350292 76.38718414 -1 2 0 
167 4 1 -1.00000000 129.10000610 -308.35781097 403.21698284 75.74247742 -1 2 0 
168 4 1 -1.00000000 129.10000610 -311.73789978 403.43083191 77.35777283 -2 2 0 
169 4 2 1.00000000 128.19999695 -314.93047333 403.31923294 79.36006165 -2 2 0 
170 4 1 -1.00000000 129.10000610 -317.91323090 401.11948299 79.59939575 -2 2 0 
171 4 1 -1.00000000 129.10000610 -321.46646118 401.38522625 80.98197937 -2 2 0 
172 4 1 -1.00000000 129.10000610 -322.16535950 405.06523514 79.59424591 -2 2 0 
173 4 2 1.00000000 128.19999695 -324.42024231 407.59165382 80.81462860 -2 2 0 
174 4 1 -1.00000000 129.10000610 -326.58293152 408.11666012 84.13626862 -2 2 0 
175 4 1 -1.00000000 129.10000610 -325.61086273 407.64990044 87.70769501 -2 2 0 
176 4 2 1.00000000 128.19999695 -328.13642883 407.00079441 90.47873688 -2 2 0 
177 4 2 1.00000000 128.19999695 -331.75696564 406.94866991 90.70350647 -2 2 0 
178 4 2 1.00000000 128.19999695 -333.36763000 406.74896288 87.40964508 -2 2 0 
179 4 2 1.00000000 128.19999695 -333.33548737 403.46507931 85.36077881 -2 2 0 
180 4 2 1.00000000 128.19999695 -334.36685944 399.91074181 85.16221619 -2 2 0 
181 4 1 -1.00000000 129.10000610 -336.70713806 397.93036270 82.83503723 -2 2 0 
182 4 1 -1.00000000 129.10000610 -339.38660431 396.80139732 80.22838593 -2 2 0 
183 4 1 -1.00000000 129.10000610 -342.32592773 399.42174721 79.99078369 -2 2 0 
184 4 2 1.00000000 128.19999695 -346.11078644 398.62586021 79.63752747 -2 2 0 
185 4 2 1.00000000 128.19999695 -348.02624512 401.64808846 80.50240326 -2 2 0 
186 4 2 1.00000000 128.19999695 -348.07122040 404.34918213 83.14160919 -2 2 0 
187 4 1 -1.00000000 129.10000610 -346.20325470 407.50713158 82.05793762 -2 2 0 
188 4 2 1.00000000 128.19999695 -342.32579041 408.21247673 83.14551544 -2 2 0 
189 4 1 -1.00000000 129.10000610 -338.82616425 409.42913961 82.40241241 -2 2 0 
190 4 1 -1.00000000 129.10000610 -339.13458252 411.13207293 79.02705383 -2 2 0 
191 4 1 -1.00000000 129.10000610 -340.47178650 412.01140666 75.38101959 -2 2 0 
192 4 2 1.00000000 128.19999695 -344.08327484 412.75486529 75.38124084 -2 2 0 
193 4 1 -1.00000000 129.10000610 -345.02465057 415.11831948 78.15081024 -2 2 0 
194 4 2 1.00000000 128.19999695 -343.61537170 418.06185699 80.48376465 -2 2 0 
195 4 2 1.00000000 128.19999695 -346.61149597 420.27130985 81.67262268 -2 2 0 
196 4 2 1.00000000 128.19999695 -348.04333496 423.71837330 80.22985840 -2 2 0 
197 4 1 -1.00000000 129.10000610 -351.25101852 423.44274712 78.18318176 -2 2 0 
198 4 2 1.00000000 128.19999695 -350.78200912 422.81086349 74.34745789 -2 2 0 
199 4 1 -1.00000000 129.10000610 -351.02366638 425.99831676 71.89683533 -2 2 0 
200 4 2 1.00000000 128.19999695 -351.82365799 425.78770542 68.07781982 -2 2 0 
201 5 2 1.00000000 128.19999695 -327.78254700 -267.85531998 -294.24557495 -2 -1 -1 
202 5 1 -1.00000000 129.10000610 -327.72050476 -265.73577118 -297.47834015 -2 -1 -1 
203 5 2 1.00000000 128.19999695 -327.43961334 -262.06184387 -295.83876038 -2 -1 -1 
204 5 2 1.00000000 128.19999695 -325.97920227 -259.18409729 -293.34336853 -2 -1 -1 
205 5 2 1.00000000 128.19999695 -327.66463470 -256.05650330 -291.84584045 -2 -1 -1 
206 5 1 -1.00000000 129.10000610 -327.15373230 -252.41247559 -292.46154785 -2 -1 -1 
207 5 2 1.00000000 128.19999695 -323.90241241 -250.90494537 -293.69801331 -2 -1 -1 
208 5 1 -1.00000000 129.10000610 -322.53202057 -251.46866608 -297.05847168 -2 -1 -1 
209 5 1 -1.00000000 129.10000610 -320.55632019 -254.27294922 -298.58078003 -2 -1 -1 
210 5 1 -1.00000000 129.10000610 -318.73989105 -257.10463715 -299.84509277 -2 -1 -1 
211 5 2 1.00000000 128.19999695 -317.16764069 -259.26465988 -297.11638641 -2 -1 -1 
212 5 1 -1.00000000 129.10000610 -314.08441925 -261.18683624 -295.92349243 -2 -1 -1 
213 5 1 -1.00000000 129.10000610 -310.94541168 -263.25173569 -295.61449432 -1 -1 -1 
214 5 1 -1.00000000 129.10000610 -311.97547913 -266.19492340 -297.36875916 -2 -1 -1 
215 5 2 1.00000000 128.19999695 -312.36322021 -269.75225449 -299.10110474 -2 -1 -1 
216 5 2 1.00000000 128.19999695 -312.24597168 -273.02039337 -300.74220276 -2 -1 -1 
217 5 1 -1.00000000 129.10000610 -310.71689606 -276.08119202 -302.11431122 -1 -1 -1 
218 5 1 -1.00000000 129.10000610 -312.99546051 -277.17837524 -304.85884094 -2 -1 -1 
219 5 2 1.00000000 128.19999695 -315.41126251 -277.42303467 -307.85635376 -2 -1 -1 
220 5 1 -1.00000000 129.10000610 -315.39801788 -274.78668213 -311.07485962 -2 -1 -2 
221 5 1 -1.00000000 129.10000610 -316.34577179 -271.80158997 -312.99108887 -2 -1 -2 
222 5 1 -1.00000000 129.10000610 -315.38771057 -272.89640808 -316.83908081 -2 -1 -2 
223 5 2 1.00000000 128.19999695 -312.26728821 -274.81114960 -318.35157013 -2 -1 -2 
224 5 1 -1.00000000 129.10000610 -310.10266876 -277.48740387 -320.31546783 -1 -1 -2 
225 5 1 -1.00000000 129.10000610 -310.66616821 -278.25901031 -324.01248932 -1 -1 -2 
226 5 2 1.00000000 128.19999695 -312.37791443 -280.32451630 -326.67419434 -2 -1 -2 
227 5 2 1.00000000 128.19999695 -315.75032806 -280.31186676 -328.55358887 -2 -1 -2 
228 5 2 1.00000000 128.19999695 -316.83589172 -283.83055878 -329.34871674 -2 -1 -2 
229 5 2 1.00000000 128.19999695 -318.60167694 -285.79304504 -327.14119720 -2 -1 -2 
230 5 2 1.00000000 128.19999695 -320.61878204 -288.25769043 -325.12460327 -2 -1 -2 
231 5 1 -1.00000000 129.10000610 -322.10064697 -291.78718567 -324.16744995 -2 -1 -2 
232 5 1 -1.00000000 129.10000610 -320.03924561 -294.60733032 -323.07807159 -2 -1 -2 
233 5 1 -1.00000000 129.10000610 -317.04335022 -296.31317902 -325.25022125 -2 -1 -2 
234 5 2 1.00000000 128.19999695 -316.59015656 -299.45601654 -327.26852417 -2 -1 -2 
235 5 2 1.00000000 128.19999695 -315.77706146 -301.02639008 -330.41581726 -2 -1 -2 
236 5 2 1.00000000 128.19999695 -314.10317993 -302.18367767 -333.69033051 -2 -1 -2 
237 5 1 -1.00000000 129.10000610 -312.92010498 -305.63070679 -332.26760864 -2 -1 -2 
238 5 2 1.00000000 128.19999695 -310.27564240 -307.28012085 -334.22805786 -1 -1 -2 
239 5 1 -1.00000000 129.10000610 -306.72314453 -307.01069641 -334.92848206 -1 -1 -2 
240 5 1 -1.00000000 129.10000610 -305.61792755 -310.18725586 -337.27309418 -1 -1 -2 
241 5 1 -1.00000000 129.10000610 -305.92957306 -313.38964081 -335.22740173 -1 -2 -2 
242 5 2 1.00000000 128.19999695 -307.93902588 -313.25536346 -331.96517181 -1 -2 -2 
243 5 1 -1.00000000 129.10000610 -306.33177948 -311.08825684 -329.31418610 -1 -2 -2 
244 5 2 1.00000000 128.19999695 -302.99545288 -312.48096466 -327.97993469 -1 -2 -2 
245 5 2 1.00000000 128.19999695 -300.70714569 -315.34990692 -326.70005035 -1 -2 -2 
246 5 2 1.00000000 128.19999695 -301.46229553 -318.96495819 -326.32873535 -1 -2 -2 
247 5 1 -1.00000000 129.10000610 -301.84487152 -322.94630432 -326.83667755 -1 -2 -2 
248 5 2 1.00000000 128.19999695 -305.03116608 -325.00087738 -327.25164795 -1 -2 -2 
249 5 1 -1.00000000 129.10000610 -304.70305634 -328.98471832 -328.02090454 -1 -2 -2 
250 5 2 1.00000000 128.19999695 -303.27687073 -332.10870361 -329.59594727 -1 -2 -2 
251 6 2 1.00000000 128.19999695 432.39081001 -354.08578491 -110.16609192 2 -2 -1 
252 6 1 -1.00000000 129.10000610 431.30953026 -353.68092728 -106.71239471 2 -2 -1 
253 6 2 1.00000000 128.19999695 433.22054482 -353.35293579 -103.59706879 2 -2 0 
254 6 2 1.00000000 128.19999695 435.83938408 -353.70358276 -100.96035767 2 -2 0 
255 6 2 1.00000000 128.19999695 437.14973831 -350.60372925 -99.39546967 2 -2 0 
256 6 1 -1.00000000 129.10000610 437.58735085 -348.03942108 -96.28220367 2 -2 0 
257 6 2 1.00000000 128.19999695 441.51151657 -348.09497833 -95.19872284 2 -2 0 
258 6 1 -1.00000000 129.10000610 444.94534302 -349.67005157 -94.51486969 2 -2 0 
259 6 1 -1.00000000 129.10000610 445.59925842 -353.19640350 -93.64808655 2 -2 0 
260 6 1 -1.00000000 129.10000610 446.22953033 -356.80753326 -94.52561188 2 -2 0 
261 6 2 1.00000000 128.19999695 445.53550720 -360.49156570 -95.30161285 2 -2 0 
262 6 1 -1.00000000 129.10000610 448.30239868 -362.74555206 -96.67238617 2 -2 0 
263 6 1 -1.00000000 129.10000610 446.56894112 -366.23709488 -96.50511932 2 -2 0 
264 6 1 -1.00000000 129.10000610 443.07589149 -366.88312531 -95.74993896 2 -2 0 
265 6 2 1.00000000 128.19999695 440.19827080 -366.78142166 -98.37918854 2 -2 0 
266 6 2 1.00000000 128.19999695 440.32772636 -365.27101898 -101.49337006 2 -2 0 
267 6 1 -1.00000000 129.10000610 444.01447487 -365.22414017 -102.88812256 2 -2 0 
268 6 1 -1.00000000 129.10000610 444.68585205 -366.87937927 -106.34171295 2 -2 -1 
269 6 2 1.00000000 128.19999695 443.78237915 -370.23494720 -108.09743500 2 -2 -1 
270 6 1 -1.00000000 129.10000610 445.81387901 -372.98460007 -110.03952789 2 -2 -1 
271 6 1 -1.00000000 129.10000610 449.45435333 -372.89085770 -109.00138092 2 -2 -1 
272 6 1 -1.00000000 129.10000610 451.45108414 -369.94600677 -107.91333771 2 -2 -1 
273 6 2 1.00000000 128.19999695 454.06291580 -367.42805099 -106.72967529 2 -2 -1 
274 6 1 -1.00000000 129.10000610 456.91046906 -366.59706116 -109.33460236 2 -2 -1 
275 6 1 -1.00000000 129.10000610 458.35089874 -368.53081131 -112.23276520 2 -2 -1 
276 6 2 1.00000000 128.19999695 458.77273178 -369.45699692 -115.56379700 2 -2 -1 
277 6 2 1.00000000 128.19999695 456.94247818 -370.52392197 -118.98015594 2 -2 -1 
278 6 2 1.00000000 128.19999695 453.22648621 -369.84990311 -120.19691467 2 -2 -1 
279 6 2 1.00000000 128.19999695 450.58977890 -372.88017654 -121.47121429 2 -2 -1 
280 6 2 1.00000000 128.19999695 449.58449936 -376.90282822 -120.45129395 2 -2 -1 
281 6 1 -1.00000000 129.10000610 452.66983414 -378.55104828 -121.81086731 2 -2 -1 
282 6 1 -1.00000000 129.10000610 456.20255280 -377.16737747 -121.95191956 2 -2 -1 
283 6 1 -1.00000000 129.10000610 456.71060181 -373.98321152 -123.78273773 2 -2 -1 
284 6 2 1.00000000 128.19999695 458.66898727 -374.39966965 -127.18838501 2 -2 -1 
285 6 2 1.00000000 128.19999695 459.68584061 -373.44618225 -130.52901459 2 -2 -1 
286 6 2 1.00000000 128.19999695 460.92732239 -374.38390350 -134.30841064 2 -2 -1 
287 6 1 -1.00000000 129.10000610 457.81498337 -374.86694717 -136.51409912 2 -2 -1 
288 6 2 1.00000000 128.19999695 454.03373337 -375.37881851 -136.23687744 2 -2 -1 
289 6 1 -1.00000000 129.10000610 450.45573044 -376.60667419 -136.93723297 2 -2 -1 
290 6 1 -1.00000000 129.10000610 448.46667862 -379.64573288 -135.80255127 2 -2 -1 
291 6 1 -1.00000000 129.10000610 446.78156662 -381.82970428 -133.28987885 2 -2 -1 
292 6 2 1.00000000 128.19999695 444.80369186 -378.85898972 -131.47420502 2 -2 -1 
293 6 1 -1.00000000 129.10000610 447.15675735 -378.75098038 -128.30702972 2 -2 -1 
294 6 2 1.00000000 128.19999695 446.32971573 -381.91325378 -126.49893951 2 -2 -1 
295 6 2 1.00000000 128.19999695 444.81126785 -385.51513863 -125.80236816 2 -2 -1 
296 6 2 1.00000000 128.19999695 444.38953209 -389.54174232 -125.52033234 2 -2 -1 
297 6 1 -1.00000000 129.10000610 443.63706207 -391.64550972 -128.56181335 2 -2 -1 
298 6 2 1.00000000 128.19999695 444.95431328 -394.21818924 -131.11174774 2 -2 -1 
299 6 1 -1.00000000 129.10000610 443.66762543 -394.64869499 -134.42214966 2 -2 -1 
300 6 2 1.00000000 128.19999695 444.24804688 -392.61653137 -137.71747589 2 -2 -1 
301 7 2 1.00000000 128.19999695 -77.81228638 -11.75861740 -879.47457123 0 0 -4 
302 7 1 -1.00000000 129.10000610 -78.44516754 -8.43175316 -877.89362335 0 0 -4 
303 7 2 1.00000000 128.19999695 -78.04151917 -6.59692574 -874.58516693 0 0 -4 
304 7 2 1.00000000 128.19999695 -78.88903809 -3.30359912 -873.28263474 0 0 -4 
305 7 2 1.00000000 128.19999695 -80.82493591 -0.85741788 -871.33218002 0 0 -4 
306 7 1 -1.00000000 129.10000610 -78.72613525 2.06407309 -869.58252716 0 0 -4 
307 7 2 1.00000000 128.19999695 -75.40245819 2.43214512 -867.65100098 0 0 -4 
308 7 1 -1.00000000 129.10000610 -71.61846161 4.03583431 -867.59088135 0 0 -4 
309 7 1 -1.00000000 129.10000610 -68.70389557 3.28608179 -864.88173294 0 0 -4 
310 7 1 -1.00000000 129.10000610 -66.58000183 4.83145428 -862.53612900 0 0 -4 
311 7 2 1.00000000 128.19999695 -63.97975540 7.22919416 -863.93169403 0 0 -4 
312 7 1 -1.00000000 129.10000610 -62.22573471 6.52338123 -867.44440842 0 0 -4 
313 7 1 -1.00000000 129.10000610 -63.57115936 3.47584534 -870.18882751 0 0 -4 
314 7 1 -1.00000000 129.10000610 -65.30377197 2.61598229 -873.61608505 0 0 -4 
315 7 2 1.00000000 128.19999695 -66.97460938 -0.61392397 -873.44337845 0 0 -4 
316 7 2 1.00000000 128.19999695 -64.85421753 -2.72870874 -870.96319962 0 0 -4 
317 7 1 -1.00000000 129.10000610 -66.73142242 -6.07167721 -870.02184296 0 0 -4 
318 7 1 -1.00000000 129.10000610 -63.68291092 -8.52659512 -870.03710175 0 0 -4 
319 7 2 1.00000000 128.19999695 -60.16965103 -8.84764481 -870.19483948 0 0 -4 
320 7 1 -1.00000000 129.10000610 -58.30839157 -5.67782927 -869.25108719 0 0 -4 
321 7 1 -1.00000000 129.10000610 -55.06718445 -6.32835388 -868.11501694 0 0 -4 
322 7 1 -1.00000000 129.10000610 -52.10574722 -7.00615644 -866.71665573 0 0 -4 
323 7 2 1.00000000 128.19999695 -50.15528870 -10.29811287 -866.89505386 0 0 -4 
324 7 1 -1.00000000 129.10000610 -46.43175507 -9.30150509 -867.57369232 0 0 -4 
325 7 1 -1.00000000 129.10000610 -42.79769897 -8.17050171 -866.18286896 0 0 -4 
326 7 2 1.00000000 128.19999695 -39.78057861 -10.87789822 -865.64455032 0 0 -4 
327 7 2 1.00000000 128.19999695 -37.28943253 -11.84977436 -867.92333984 0 0 -4 
328 7 2 1.00000000 128.19999695 -36.32453156 -9.07959843 -870.24977493 0 0 -4 
329 7 2 1.00000000 128.19999695 -36.69860077 -8.77090549 -874.14596176 0 0 -4 
330 7 2 1.00000000 128.19999695 -33.86016083 -7.94328880 -876.71224594 0 0 -4 
331 7 1 -1.00000000 129.10000610 -31.43578339 -5.48848581 -874.69290924 0 0 -4 
332 7 1 -1.00000000 129.10000610 -30.43934250 -3.48794556 -871.98878860 0 0 -4 
333 7 1 -1.00000000 129.10000610 -28.48707199 -3.62160563 -868.44508743 0 0 -4 
334 7 2 1.00000000 128.19999695 -28.26133347 -6.96411228 -866.71036530 0 0 -4 
335 7 2 1.00000000 128.19999695 -29.07004738 -8.87780952 -863.58768082 0 0 -4 
336 7 2 1.00000000 128.19999695 -27.07384491 -11.22660065 -861.39292145 0 0 -4 
337 7 1 -1.00000000 129.10000610 -24.29172707 -13.90856743 -862.03133774 0 0 -4 
338 7 2 1.00000000 128.19999695 -20.68547058 -15.06442928 -862.20870209 0 0 -4 
339 7 1 -1.00000000 129.10000610 -17.36086464 -16.76505089 -862.09526825 0 0 -4 
340 7 1 -1.00000000 129.10000610 -14.09422207 -18.36751175 -861.33645439 0 0 -4 
341 7 1 -1.00000000 129.10000610 -12.00861835 -21.03940773 -860.81401443 0 0 -4 
342 7 2 1.00000000 128.19999695 -9.43107510 -24.07281876 -860.46835709 0 0 -4 
343 7 1 -1.00000000 129.10000610 -7.39717817 -23.97660065 -863.50977707 0 0 -4 
344 7 2 1.00000000 128.19999695 -7.23853111 -21.19739342 -866.71818924 0 0 -4 
345 7 2 1.00000000 128.19999695 -6.21433973 -17.56242371 -865.90315247 0 0 -4 
346 7 2 1.00000000 128.19999695 -8.04581451 -15.03602123 -868.18562698 0 0 -4 
347 7 1 -1.00000000 129.10000610 -8.04049969 -11.53690434 -869.90710068 0 0 -4 
348 7 2 1.00000000 128.19999695 -9.11444283 -9.70845032 -873.13602448 0 0 -4 
349 7 1 -1.00000000 129.10000610 -8.38362598 -5.99955654 -873.95372009 0 0 -4 
350 7 2 1.00000000 128.19999695 -5.10849762 -4.65131474 -875.77098846 0 0 -4 
351 8 2 1.00000000 128.19999695 62.39032745 -101.11406708 655.72081757 0 0 3 
352 8 1 -1.00000000 129.10000610 62.78052139 -99.17414093 658.94176483 0 0 3 
353 8 2 1.00000000 128.19999695 63.14501953 -100.34500122 662.86392593 0 0 3 
354 8 2 1.00000000 128.19999695 61.54968643 -97.34997559 665.10101318 0 0 3 
355 8 2 1.00000000 128.19999695 60.46745300 -98.71060181 668.31314850 0 0 3 
356 8 1 -1.00000000 129.10000610 60.73807144 -102.77682495 668.93878937 0 0 3 
357 8 2 1.00000000 128.19999695 57.29215622 -103.80109406 668.12794495 0 -1 3 
358 8 1 -1.00000000 129.10000610 57.58232117 -103.17549896 664.10639191 0 0 3 
359 8 1 -1.00000000 129.10000610 53.83938980 -103.21514893 662.88558960 0 0 3 
360 8 1 -1.00000000 129.10000610 53.48902130 -100.58970642 660.11539459 0 0 3 
361 8 2 1.00000000 128.19999695 52.38207626 -97.32608032 659.36068344 0 0 3 
362 8 1 -1.00000000 129.10000610 51.87880325 -93.63748169 660.55549622 0 0 3 
363 8 1 -1.00000000 129.10000610 52.22853851 -92.35866547 664.17251587 0 0 3 
364 8 1 -1.00000000 129.10000610 51.52347946 -95.71033478 665.83066940 0 0 3 
365 8 2 1.00000000 128.19999695 53.16281128 -97.70541382 668.89658737 0 0 3 
366 8 2 1.00000000 128.19999695 50.16669846 -98.87947083 670.41971588 0 0 3 
367 8 1 -1.00000000 129.10000610 48.51824570 -102.03527069 671.98526764 0 0 3 
368 8 1 -1.00000000 129.10000610 45.44750214 -102.90646362 669.70995331 0 0 3 
369 8 2 1.00000000 128.19999695 42.72305298 -105.08237457 670.56236267 0 -1 3 