ITEM: TIMESTEP
42450000 
ITEM: NUMBER OF ATOMS 
25000 
ITEM: BOX BOUNDS pp pp pp 
-103.678017 103.678017 
-103.678017 103.678017 
-103.678017 103.678017 
ITEM: ATOMS id mol type q mass xu yu zu ix iy iz 
1 1 2 1.00000000 128.19999695 438.78545952 -97.58647156 -269.96664047 2 0 -1 
2 1 1 -1.00000000 129.10000610 436.86890030 -100.13824463 -267.39623260 2 0 -1 
3 1 2 1.00000000 128.19999695 433.92108727 -102.31510925 -268.32489395 2 0 -1 
4 1 2 1.00000000 128.19999695 433.60152626 -106.01156616 -267.60383606 2 -1 -1 
5 1 2 1.00000000 128.19999695 435.03647614 -109.12789917 -266.41114044 2 -1 -1 
6 1 1 -1.00000000 129.10000610 434.52634048 -112.80958557 -266.45239639 2 -1 -1 
7 1 2 1.00000000 128.19999695 435.03260994 -114.19084167 -269.76538086 2 -1 -1 
8 1 1 -1.00000000 129.10000610 437.65781021 -112.56495667 -271.59619904 2 -1 -1 
9 1 1 -1.00000000 129.10000610 439.90745544 -112.44958496 -274.52017975 2 -1 -1 
10 1 1 -1.00000000 129.10000610 443.36385345 -111.22888184 -275.55704498 2 -1 -1 
11 1 2 1.00000000 128.19999695 446.13944054 -112.41252136 -278.32769012 2 -1 -1 
12 1 1 -1.00000000 129.10000610 449.67170334 -112.49435425 -278.52903748 2 -1 -1 
13 1 1 -1.00000000 129.10000610 450.08314514 -115.84787750 -276.89854431 2 -1 -1 
14 1 1 -1.00000000 129.10000610 447.17499161 -118.60532379 -276.15796661 2 -1 -1 
15 1 2 1.00000000 128.19999695 445.99691772 -118.40378571 -272.73958588 2 -1 -1 
16 1 2 1.00000000 128.19999695 445.35904312 -116.46422577 -269.49755859 2 -1 -1 
17 1 1 -1.00000000 129.10000610 448.07322311 -114.98737335 -267.41014481 2 -1 -1 
18 1 1 -1.00000000 129.10000610 449.83709335 -112.65876007 -265.06944275 2 -1 -1 
19 1 2 1.00000000 128.19999695 451.63576126 -115.13568115 -262.42879486 2 -1 -1 
20 1 1 -1.00000000 129.10000610 455.20351791 -114.74358368 -262.26206970 2 -1 -1 
21 1 1 -1.00000000 129.10000610 455.71696472 -111.23867798 -260.90779495 2 -1 -1 
22 1 1 -1.00000000 129.10000610 459.25018692 -109.58708191 -260.54914856 2 -1 -1 
23 1 2 1.00000000 128.19999695 462.02294922 -107.47028351 -261.27543259 2 -1 -1 
24 1 1 -1.00000000 129.10000610 465.36053467 -107.87175751 -262.32057953 2 -1 -1 
25 1 1 -1.00000000 129.10000610 467.42581940 -110.78680420 -263.03691101 2 -1 -1 
26 1 2 1.00000000 128.19999695 469.20436096 -113.95899963 -263.64397430 2 -1 -1 
27 1 2 1.00000000 128.19999695 472.76076508 -115.20265961 -262.37539673 2 -1 -1 
28 1 2 1.00000000 128.19999695 475.89854431 -113.49554443 -262.99300003 2 -1 -1 
29 1 2 1.00000000 128.19999695 479.79621887 -114.00341034 -264.08309174 2 -1 -1 
30 1 2 1.00000000 128.19999695 482.54302216 -116.26375580 -262.86652374 2 -1 -1 
31 1 1 -1.00000000 129.10000610 484.02030182 -119.40822601 -261.77774429 2 -1 -1 
32 1 1 -1.00000000 129.10000610 485.36560059 -122.20565796 -259.37150574 2 -1 -1 
33 1 1 -1.00000000 129.10000610 484.75966644 -123.82366180 -255.69181442 2 -1 -1 
34 1 2 1.00000000 128.19999695 485.06880951 -127.12375641 -254.78881454 2 -1 -1 
35 1 2 1.00000000 128.19999695 483.51119995 -129.23233795 -251.57482910 2 -1 -1 
36 1 2 1.00000000 128.19999695 482.46839142 -132.30368042 -253.19333267 2 -1 -1 
37 1 1 -1.00000000 129.10000610 483.91291809 -133.81535339 -256.02473450 2 -1 -1 
38 1 2 1.00000000 128.19999695 487.40072632 -132.35861969 -256.45738602 2 -1 -1 
39 1 1 -1.00000000 129.10000610 490.22352600 -134.39318848 -257.48217773 2 -1 -1 
40 1 1 -1.00000000 129.10000610 489.85907745 -138.24061584 -257.83436966 2 -1 -1 
41 1 1 -1.00000000 129.10000610 489.70466614 -140.00293732 -261.31729889 2 -1 -1 
42 1 2 1.00000000 128.19999695 487.34703064 -140.48712158 -264.20120621 2 -1 -1 
43 1 1 -1.00000000 129.10000610 485.99819946 -144.10731888 -263.67448044 2 -1 -1 
44 1 2 1.00000000 128.19999695 485.76663971 -147.99762726 -264.43191910 2 -1 -1 
45 1 2 1.00000000 128.19999695 487.74221039 -149.62798691 -267.19423676 2 -1 -1 
46 1 2 1.00000000 128.19999695 491.21234894 -149.85325623 -265.86536789 2 -1 -1 
47 1 1 -1.00000000 129.10000610 491.80709076 -146.07907486 -266.60456085 2 -1 -1 
48 1 2 1.00000000 128.19999695 489.75188446 -144.13903427 -269.23758698 2 -1 -1 
49 1 1 -1.00000000 129.10000610 488.11304474 -141.82581329 -271.90891266 2 -1 -1 
50 1 2 1.00000000 128.19999695 484.36401367 -141.38259125 -272.11460876 2 -1 -1 
51 2 2 1.00000000 128.19999695 482.26491547 398.48931122 -393.12470627 2 2 -2 
52 2 1 -1.00000000 129.10000610 482.41387177 399.18115902 -389.49156761 2 2 -2 
53 2 2 1.00000000 128.19999695 480.03241730 399.05123138 -386.22300339 2 2 -2 
54 2 2 1.00000000 128.19999695 480.87875366 400.61654282 -383.09333611 2 2 -2 
55 2 2 1.00000000 128.19999695 482.88510132 401.11514950 -379.89849472 2 2 -2 
56 2 1 -1.00000000 129.10000610 480.92106628 399.07700729 -377.19440842 2 2 -2 
57 2 2 1.00000000 128.19999695 482.20610046 396.79220581 -374.26732254 2 2 -2 
58 2 1 -1.00000000 129.10000610 482.42666626 397.01128960 -370.69015503 2 2 -2 
59 2 1 -1.00000000 129.10000610 479.52970123 395.25580215 -368.48591232 2 2 -2 
60 2 1 -1.00000000 129.10000610 481.31012726 391.76027298 -367.71295166 2 2 -2 
61 2 2 1.00000000 128.19999695 481.86639404 388.26926231 -366.22751617 2 2 -2 
62 2 1 -1.00000000 129.10000610 480.46806335 384.87060928 -366.39092636 2 2 -2 
63 2 1 -1.00000000 129.10000610 478.64669037 381.46469116 -366.87430191 2 2 -2 
64 2 1 -1.00000000 129.10000610 480.46891022 378.24856567 -366.57352066 2 2 -2 
65 2 2 1.00000000 128.19999695 480.83406067 375.62372971 -363.95841599 2 2 -2 
66 2 2 1.00000000 128.19999695 478.44433594 375.77028275 -360.92765808 2 2 -2 
67 2 1 -1.00000000 129.10000610 478.23586273 373.70614243 -357.85705185 2 2 -2 
68 2 1 -1.00000000 129.10000610 475.45593262 371.84456635 -356.29129028 2 2 -2 
69 2 2 1.00000000 128.19999695 476.92142105 370.00436020 -353.06250763 2 2 -2 
70 2 1 -1.00000000 129.10000610 479.93657684 370.69272614 -350.46446991 2 2 -2 
71 2 1 -1.00000000 129.10000610 481.75376892 372.25319290 -347.27223206 2 2 -2 
72 2 1 -1.00000000 129.10000610 480.81996918 374.49549866 -344.20117188 2 2 -2 
73 2 2 1.00000000 128.19999695 478.21670151 376.34008408 -342.74695587 2 2 -2 
74 2 1 -1.00000000 129.10000610 474.60197830 375.21914673 -342.28715515 2 2 -2 
75 2 1 -1.00000000 129.10000610 474.27630615 371.48684692 -343.51872253 2 2 -2 
76 2 2 1.00000000 128.19999695 474.97373199 368.25105667 -345.94216156 2 2 -2 
77 2 2 1.00000000 128.19999695 473.86206055 366.56702042 -348.84497070 2 2 -2 
78 2 2 1.00000000 128.19999695 471.09007263 365.62136459 -351.10528183 2 2 -2 
79 2 2 1.00000000 128.19999695 469.43748474 367.92197418 -353.56033325 2 2 -2 
80 2 2 1.00000000 128.19999695 468.94940567 371.47801590 -354.01469803 2 2 -2 
81 2 1 -1.00000000 129.10000610 469.35778427 374.99057770 -355.18848419 2 2 -2 
82 2 1 -1.00000000 129.10000610 469.89456177 378.69610214 -356.44596863 2 2 -2 
83 2 1 -1.00000000 129.10000610 469.48508453 382.70129013 -357.13982391 2 2 -2 
84 2 2 1.00000000 128.19999695 468.26879883 385.69363022 -355.51680374 2 2 -2 
85 2 2 1.00000000 128.19999695 468.48575211 388.61273193 -357.55347061 2 2 -2 
86 2 2 1.00000000 128.19999695 467.40194702 390.09375763 -361.14767075 2 2 -2 
87 2 1 -1.00000000 129.10000610 466.79067612 387.33967781 -363.90903854 2 2 -2 
88 2 2 1.00000000 128.19999695 465.04774475 384.37823677 -365.37792587 2 2 -2 
89 2 1 -1.00000000 129.10000610 464.08946609 381.10399628 -367.66991425 2 2 -2 
90 2 1 -1.00000000 129.10000610 462.96505737 377.87084198 -366.08129120 2 2 -2 
91 2 1 -1.00000000 129.10000610 465.90736008 375.51240921 -367.00439835 2 2 -2 
92 2 2 1.00000000 128.19999695 468.83555984 373.68324280 -366.10114670 2 2 -2 
93 2 1 -1.00000000 129.10000610 471.81975937 374.72320938 -363.31439209 2 2 -2 
94 2 2 1.00000000 128.19999695 472.36137772 378.26071167 -363.16162109 2 2 -2 
95 2 2 1.00000000 128.19999695 473.50503540 381.79443741 -364.67913055 2 2 -2 
96 2 2 1.00000000 128.19999695 475.38742065 384.74972725 -363.10638809 2 2 -2 
97 2 1 -1.00000000 129.10000610 473.80211639 387.42101669 -360.93602753 2 2 -2 
98 2 2 1.00000000 128.19999695 475.41045380 390.75656128 -362.26549911 2 2 -2 
99 2 1 -1.00000000 129.10000610 475.58544159 393.08356285 -358.98952866 2 2 -2 
100 2 2 1.00000000 128.19999695 474.29629517 396.59954643 -357.44788361 2 2 -2 
101 3 2 1.00000000 128.19999695 333.18264008 -101.45717621 109.99622345 2 0 1 
102 3 1 -1.00000000 129.10000610 333.55056763 -102.75119019 106.69200897 2 0 1 
103 3 2 1.00000000 128.19999695 332.59516144 -103.09756470 103.48092651 2 0 0 
104 3 2 1.00000000 128.19999695 329.33818817 -105.25772095 103.99547577 2 -1 1 
105 3 2 1.00000000 128.19999695 327.40144348 -102.27561188 105.69610596 2 0 1 
106 3 1 -1.00000000 129.10000610 324.19881439 -100.86191559 107.56409454 2 0 1 
107 3 2 1.00000000 128.19999695 321.67072296 -97.71044922 107.36663818 2 0 1 
108 3 1 -1.00000000 129.10000610 319.28022766 -95.00386810 106.31661224 2 0 1 
109 3 1 -1.00000000 129.10000610 317.14487457 -95.53915405 103.26030731 2 0 0 
110 3 1 -1.00000000 129.10000610 318.21891785 -96.90099335 99.53197479 2 0 0 
111 3 2 1.00000000 128.19999695 321.03422546 -98.37488556 97.22878265 2 0 0 
112 3 1 -1.00000000 129.10000610 320.62641907 -101.49516296 95.20474243 2 0 0 
113 3 1 -1.00000000 129.10000610 320.21137238 -101.44430542 91.48712921 2 0 0 
114 3 1 -1.00000000 129.10000610 321.34853363 -98.38669586 89.81156158 2 0 0 
115 3 2 1.00000000 128.19999695 322.33495331 -95.45103455 87.61070251 2 0 0 
116 3 2 1.00000000 128.19999695 324.88350677 -93.80806732 89.74725342 2 0 0 
117 3 1 -1.00000000 129.10000610 326.80889893 -96.21080780 91.84381104 2 0 0 
118 3 1 -1.00000000 129.10000610 329.23779297 -96.16869354 94.52032471 2 0 0 
119 3 2 1.00000000 128.19999695 331.19598389 -92.61959839 94.06245422 2 0 0 
120 3 1 -1.00000000 129.10000610 333.52066803 -90.07962799 95.55159760 2 0 0 
121 3 1 -1.00000000 129.10000610 332.76723480 -86.39295959 95.66773224 2 0 0 
122 3 1 -1.00000000 129.10000610 330.47811127 -83.35991669 95.06338501 2 0 0 
123 3 2 1.00000000 128.19999695 326.87568665 -82.94007874 95.96002960 2 0 0 
124 3 1 -1.00000000 129.10000610 324.75394440 -80.07019043 96.80725098 2 0 0 
125 3 1 -1.00000000 129.10000610 321.03197479 -79.94452667 95.76734924 2 0 0 
126 3 2 1.00000000 128.19999695 319.32688904 -76.67418671 95.23588562 2 0 0 
127 3 2 1.00000000 128.19999695 317.59136963 -72.73780823 95.59000397 2 0 0 
128 3 2 1.00000000 128.19999695 315.59457397 -70.45559692 98.08103943 2 0 0 
129 3 2 1.00000000 128.19999695 314.67310333 -67.00695038 99.37129974 2 0 0 
130 3 2 1.00000000 128.19999695 311.96655273 -64.57361603 99.20712280 2 0 0 
131 3 1 -1.00000000 129.10000610 309.82002258 -62.55492020 96.88142395 1 0 0 
132 3 1 -1.00000000 129.10000610 307.86665344 -60.83327103 94.28886414 1 0 0 
133 3 1 -1.00000000 129.10000610 306.30423737 -61.32669830 90.81948090 1 0 0 
134 3 2 1.00000000 128.19999695 307.64875031 -64.11962891 88.51028442 1 0 0 
135 3 2 1.00000000 128.19999695 310.32976532 -62.87074280 85.90522003 1 0 0 
136 3 2 1.00000000 128.19999695 310.61139679 -63.50927734 82.29366302 1 0 0 
137 3 1 -1.00000000 129.10000610 312.75057983 -61.05948257 80.22183228 2 0 0 
138 3 2 1.00000000 128.19999695 314.62200928 -59.42024994 77.19435120 2 0 0 
139 3 1 -1.00000000 129.10000610 313.28486633 -56.87362671 74.38877106 2 0 0 
140 3 1 -1.00000000 129.10000610 315.62220764 -55.63024139 71.63385773 2 0 0 
141 3 1 -1.00000000 129.10000610 314.15828705 -53.66690063 68.50344086 2 0 0 
142 3 2 1.00000000 128.19999695 312.41112518 -50.08401489 67.99240875 2 0 0 
143 3 1 -1.00000000 129.10000610 312.68251801 -46.17662048 68.04274750 2 0 0 
144 3 2 1.00000000 128.19999695 310.80687714 -44.55242920 64.99081421 1 0 0 
145 3 2 1.00000000 128.19999695 310.65651703 -45.75096512 61.43663406 1 0 0 
146 3 2 1.00000000 128.19999695 309.23034668 -48.32050323 59.54016495 1 0 0 
147 3 1 -1.00000000 129.10000610 309.30651855 -51.91661453 61.00134277 1 0 0 
148 3 2 1.00000000 128.19999695 312.68823242 -52.74842072 62.06160736 2 0 0 
149 3 1 -1.00000000 129.10000610 315.87592316 -50.66804123 62.25156784 2 0 0 
150 3 2 1.00000000 128.19999695 318.64701080 -48.90942001 63.98337173 2 0 0 
151 4 2 1.00000000 128.19999695 -370.32839584 417.00267625 68.33309937 -2 2 0 
152 4 1 -1.00000000 129.10000610 -369.10388947 419.10698938 71.16708374 -2 2 0 
153 4 2 1.00000000 128.19999695 -366.45886993 421.64387131 70.86253357 -2 2 0 
154 4 2 1.00000000 128.19999695 -365.57727814 425.60564518 71.30601501 -2 2 0 
155 4 2 1.00000000 128.19999695 -364.81376266 428.79894161 72.86903381 -2 2 0 
156 4 1 -1.00000000 129.10000610 -362.80459213 432.12971306 72.16370392 -2 2 0 
157 4 2 1.00000000 128.19999695 -359.25168610 432.51403809 71.58109283 -2 2 0 
158 4 1 -1.00000000 129.10000610 -357.77466965 429.43567371 72.36635590 -2 2 0 
159 4 1 -1.00000000 129.10000610 -358.74621582 425.72491932 72.25145721 -2 2 0 
160 4 1 -1.00000000 129.10000610 -358.67225647 421.86609840 71.69441223 -2 2 0 
161 4 2 1.00000000 128.19999695 -358.19486618 418.28483844 70.21169281 -2 2 0 
162 4 1 -1.00000000 129.10000610 -358.27271271 414.46466552 70.97309113 -2 2 0 
163 4 1 -1.00000000 129.10000610 -357.88173676 412.01118851 68.23208618 -2 2 0 
164 4 1 -1.00000000 129.10000610 -360.26393509 411.61078429 65.07242584 -2 2 0 
165 4 2 1.00000000 128.19999695 -363.97566605 410.87668133 65.33353424 -2 2 0 
166 4 2 1.00000000 128.19999695 -365.11341476 409.94315672 61.64414215 -2 2 0 
167 4 1 -1.00000000 129.10000610 -363.10854340 408.92311573 58.26480865 -2 2 0 
168 4 1 -1.00000000 129.10000610 -361.30303192 406.86934233 55.57601929 -2 2 0 
169 4 2 1.00000000 128.19999695 -357.81863403 405.15273952 54.99135208 -2 2 0 
170 4 1 -1.00000000 129.10000610 -357.46411133 404.59470940 50.94910431 -2 2 0 
171 4 1 -1.00000000 129.10000610 -360.97723007 404.14284420 49.72340012 -2 2 0 
172 4 1 -1.00000000 129.10000610 -361.72200012 400.34108543 48.19698715 -2 2 0 
173 4 2 1.00000000 128.19999695 -359.84777832 397.37677956 47.40081787 -2 2 0 
174 4 1 -1.00000000 129.10000610 -358.66484833 394.54865646 45.06294250 -2 2 0 
175 4 1 -1.00000000 129.10000610 -358.04641724 391.05229759 46.66384125 -2 2 0 
176 4 2 1.00000000 128.19999695 -355.42852783 388.76704979 45.47717285 -2 2 0 
177 4 2 1.00000000 128.19999695 -356.89188766 386.01820374 43.70648575 -2 2 0 
178 4 2 1.00000000 128.19999695 -359.32000351 386.21718025 40.64571762 -2 2 0 
179 4 2 1.00000000 128.19999695 -361.87158203 388.38017654 39.02797699 -2 2 0 
180 4 2 1.00000000 128.19999695 -365.17768097 387.83582497 38.25697327 -2 2 0 
181 4 1 -1.00000000 129.10000610 -367.62974930 388.64983749 41.08245850 -2 2 0 
182 4 1 -1.00000000 129.10000610 -369.55547333 385.77991867 43.20669556 -2 2 0 
183 4 1 -1.00000000 129.10000610 -373.17826462 384.68814659 42.64749908 -2 2 0 
184 4 2 1.00000000 128.19999695 -374.34269333 381.35677719 43.88220596 -2 2 0 
185 4 2 1.00000000 128.19999695 -378.15623474 381.63348007 42.46639633 -2 2 0 
186 4 2 1.00000000 128.19999695 -381.72658920 382.79229355 42.64766312 -2 2 0 
187 4 1 -1.00000000 129.10000610 -381.28032303 385.08674240 39.63582611 -2 2 0 
188 4 2 1.00000000 128.19999695 -382.91938400 383.51792145 36.42663574 -2 2 0 
189 4 1 -1.00000000 129.10000610 -382.92946625 386.53602028 34.06991959 -2 2 0 
190 4 1 -1.00000000 129.10000610 -381.78916931 389.87915611 35.96525574 -2 2 0 
191 4 1 -1.00000000 129.10000610 -384.01691246 392.30637360 37.89721298 -2 2 0 
192 4 2 1.00000000 128.19999695 -384.36782074 396.07293510 38.03391647 -2 2 0 
193 4 1 -1.00000000 129.10000610 -385.54510498 399.23444176 39.91229630 -2 2 0 
194 4 2 1.00000000 128.19999695 -386.34502602 402.85090160 41.85526657 -2 2 0 
195 4 2 1.00000000 128.19999695 -388.12795448 405.05966187 44.01628876 -2 2 0 
196 4 2 1.00000000 128.19999695 -391.70123672 404.34363365 44.70418549 -2 2 0 
197 4 1 -1.00000000 129.10000610 -394.04208755 401.20209026 44.52644730 -2 2 0 
198 4 2 1.00000000 128.19999695 -397.42812538 400.21002388 43.23249817 -2 2 0 
199 4 1 -1.00000000 129.10000610 -401.14681816 400.45469475 42.03739929 -2 2 0 
200 4 2 1.00000000 128.19999695 -402.52963448 402.65249062 39.21367645 -2 2 0 
201 5 2 1.00000000 128.19999695 -329.82877350 -354.35277939 -291.30233002 -2 -2 -1 
202 5 1 -1.00000000 129.10000610 -328.76349640 -351.53035355 -293.46918488 -2 -2 -1 
203 5 2 1.00000000 128.19999695 -330.42081451 -348.70405579 -295.64791107 -2 -2 -1 
204 5 2 1.00000000 128.19999695 -331.50141144 -349.92667389 -298.78563690 -2 -2 -1 
205 5 2 1.00000000 128.19999695 -332.07421875 -353.56855011 -298.79231262 -2 -2 -1 
206 5 1 -1.00000000 129.10000610 -328.88813782 -355.46530533 -299.94397736 -2 -2 -1 
207 5 2 1.00000000 128.19999695 -325.25903320 -355.19391251 -299.03610992 -2 -2 -1 
208 5 1 -1.00000000 129.10000610 -323.58539581 -353.12176514 -301.83652496 -2 -2 -1 
209 5 1 -1.00000000 129.10000610 -319.93173218 -351.67725754 -300.64459991 -2 -2 -1 
210 5 1 -1.00000000 129.10000610 -317.29349518 -353.60009003 -302.65392303 -2 -2 -1 
211 5 2 1.00000000 128.19999695 -317.47998810 -357.05778503 -301.01548004 -2 -2 -1 
212 5 1 -1.00000000 129.10000610 -317.94220734 -359.56734467 -298.42092133 -2 -2 -1 
213 5 1 -1.00000000 129.10000610 -317.11930847 -359.81345367 -294.79364777 -2 -2 -1 
214 5 1 -1.00000000 129.10000610 -315.14589691 -363.24179840 -294.45122528 -2 -2 -1 
215 5 2 1.00000000 128.19999695 -315.15326691 -364.12516022 -290.93358612 -2 -2 -1 
216 5 2 1.00000000 128.19999695 -313.08685303 -362.63696289 -287.78962708 -2 -2 -1 
217 5 1 -1.00000000 129.10000610 -312.79747772 -364.81755066 -284.95728302 -2 -2 -1 
218 5 1 -1.00000000 129.10000610 -313.35144043 -367.58277512 -282.51202393 -2 -2 -1 
219 5 2 1.00000000 128.19999695 -316.59014893 -369.55622864 -282.42721558 -2 -2 -1 
220 5 1 -1.00000000 129.10000610 -320.10800171 -370.50346375 -282.78585052 -2 -2 -1 
221 5 1 -1.00000000 129.10000610 -323.88857269 -371.78978729 -283.64810181 -2 -2 -1 
222 5 1 -1.00000000 129.10000610 -326.84400177 -369.96098328 -282.46643829 -2 -2 -1 
223 5 2 1.00000000 128.19999695 -328.97799683 -368.45711136 -284.96195221 -2 -2 -1 
224 5 1 -1.00000000 129.10000610 -326.58644104 -367.17969894 -287.85287476 -2 -2 -1 
225 5 1 -1.00000000 129.10000610 -325.14239502 -363.73490906 -287.28794861 -2 -2 -1 
226 5 2 1.00000000 128.19999695 -323.66092682 -360.61512375 -287.58650208 -2 -2 -1 
227 5 2 1.00000000 128.19999695 -321.29350281 -358.32820511 -285.81353760 -2 -2 -1 
228 5 2 1.00000000 128.19999695 -317.93315125 -356.28515244 -286.10220337 -2 -2 -1 
229 5 2 1.00000000 128.19999695 -316.90125275 -353.51232147 -284.14382172 -2 -2 -1 
230 5 2 1.00000000 128.19999695 -314.33174133 -352.23817444 -281.83681488 -2 -2 -1 
231 5 1 -1.00000000 129.10000610 -314.98657990 -350.08287811 -278.52216339 -2 -2 -1 
232 5 1 -1.00000000 129.10000610 -318.45733643 -349.80753326 -276.87824249 -2 -2 -1 
233 5 1 -1.00000000 129.10000610 -319.08298492 -348.63975525 -273.26464844 -2 -2 -1 
234 5 2 1.00000000 128.19999695 -321.52696991 -347.12059784 -270.96658325 -2 -2 -1 
235 5 2 1.00000000 128.19999695 -324.70288849 -345.03669739 -271.22895432 -2 -2 -1 
236 5 2 1.00000000 128.19999695 -327.57091522 -347.44833374 -270.93232346 -2 -2 -1 
237 5 1 -1.00000000 129.10000610 -330.52525330 -349.43252563 -272.34993744 -2 -2 -1 
238 5 2 1.00000000 128.19999695 -330.08949280 -353.34744644 -271.04263687 -2 -2 -1 
239 5 1 -1.00000000 129.10000610 -326.53099823 -355.07390213 -270.20408249 -2 -2 -1 
240 5 1 -1.00000000 129.10000610 -325.99609375 -352.47918701 -266.94701385 -2 -2 -1 
241 5 1 -1.00000000 129.10000610 -324.40748596 -355.40041351 -265.11071396 -2 -2 -1 
242 5 2 1.00000000 128.19999695 -323.95148468 -359.13665771 -266.24826431 -2 -2 -1 
243 5 1 -1.00000000 129.10000610 -324.51301575 -361.32983398 -269.32258224 -2 -2 -1 
244 5 2 1.00000000 128.19999695 -321.01805115 -362.23217010 -270.46946335 -2 -2 -1 
245 5 2 1.00000000 128.19999695 -320.09706116 -361.08468246 -273.92387390 -2 -2 -1 
246 5 2 1.00000000 128.19999695 -317.74191284 -360.60934830 -276.83364105 -2 -2 -1 
247 5 1 -1.00000000 129.10000610 -314.65260315 -358.09399796 -276.34731293 -2 -2 -1 
248 5 2 1.00000000 128.19999695 -315.42162323 -355.43389893 -273.47057343 -2 -2 -1 
249 5 1 -1.00000000 129.10000610 -312.98297882 -356.38468170 -270.88636398 -2 -2 -1 
250 5 2 1.00000000 128.19999695 -311.19625092 -357.78683853 -267.88734055 -2 -2 -1 
251 6 2 1.00000000 128.19999695 454.60333633 -394.75995255 -113.03866577 2 -2 -1 
252 6 1 -1.00000000 129.10000610 457.93164825 -396.35403442 -113.39876556 2 -2 -1 
253 6 2 1.00000000 128.19999695 460.44436646 -395.88773727 -110.74914551 2 -2 -1 
254 6 2 1.00000000 128.19999695 459.73039627 -398.80413532 -108.08657837 2 -2 -1 
255 6 2 1.00000000 128.19999695 462.61766434 -400.57886887 -106.04328156 2 -2 -1 
256 6 1 -1.00000000 129.10000610 461.98236847 -403.54318619 -104.11167145 2 -2 -1 
257 6 2 1.00000000 128.19999695 461.50820160 -407.38302183 -102.87671661 2 -2 0 
258 6 1 -1.00000000 129.10000610 459.70890427 -406.72453022 -99.44526672 2 -2 0 
259 6 1 -1.00000000 129.10000610 459.26027679 -407.52056122 -95.71531677 2 -2 0 
260 6 1 -1.00000000 129.10000610 458.31215668 -408.64503765 -92.14110565 2 -2 0 
261 6 2 1.00000000 128.19999695 455.39824295 -407.47952127 -89.64084625 2 -2 0 
262 6 1 -1.00000000 129.10000610 456.87047577 -404.39035225 -87.56629181 2 -2 0 
263 6 1 -1.00000000 129.10000610 455.08879471 -400.86833096 -87.96850586 2 -2 0 
264 6 1 -1.00000000 129.10000610 454.65776825 -397.79695892 -90.26369476 2 -2 0 
265 6 2 1.00000000 128.19999695 452.59418488 -394.65898705 -91.37322998 2 -2 0 
266 6 2 1.00000000 128.19999695 449.02679062 -394.12950897 -90.13476562 2 -2 0 
267 6 1 -1.00000000 129.10000610 445.69998169 -394.18471336 -91.90057373 2 -2 0 
268 6 1 -1.00000000 129.10000610 444.38431358 -396.67876053 -94.42132568 2 -2 0 
269 6 2 1.00000000 128.19999695 443.08937454 -396.11311913 -97.76473999 2 -2 0 
270 6 1 -1.00000000 129.10000610 439.96210289 -394.71643448 -99.84962463 2 -2 0 
271 6 1 -1.00000000 129.10000610 440.37567902 -394.59580421 -103.58891296 2 -2 0 
272 6 1 -1.00000000 129.10000610 441.20435524 -397.72026062 -106.12452698 2 -2 -1 
273 6 2 1.00000000 128.19999695 441.88793564 -401.57814884 -106.40910339 2 -2 -1 
274 6 1 -1.00000000 129.10000610 439.48885345 -403.57282734 -104.46059418 2 -2 -1 
275 6 1 -1.00000000 129.10000610 435.80464935 -404.15857410 -105.13642120 2 -2 -1 
276 6 2 1.00000000 128.19999695 433.55442810 -407.32241917 -104.65831757 2 -2 -1 
277 6 2 1.00000000 128.19999695 434.41666031 -409.95278692 -101.91252136 2 -2 0 
278 6 2 1.00000000 128.19999695 434.99302483 -413.61891925 -101.08203888 2 -2 0 
279 6 2 1.00000000 128.19999695 438.11539459 -415.90199220 -101.10485840 2 -2 0 
280 6 2 1.00000000 128.19999695 438.11121178 -419.37433434 -99.32084656 2 -2 0 
281 6 1 -1.00000000 129.10000610 435.67640114 -421.35246754 -101.02413177 2 -2 0 
282 6 1 -1.00000000 129.10000610 434.96293831 -424.45617199 -103.25781250 2 -2 0 
283 6 1 -1.00000000 129.10000610 432.96795654 -426.84546280 -104.86927795 2 -2 -1 
284 6 2 1.00000000 128.19999695 429.11249256 -426.09697819 -104.16939545 2 -2 -1 
285 6 2 1.00000000 128.19999695 426.38343048 -426.25211048 -106.83981323 2 -2 -1 
286 6 2 1.00000000 128.19999695 425.79191494 -422.27391148 -107.03938293 2 -2 -1 
287 6 1 -1.00000000 129.10000610 428.72204018 -419.65552616 -107.13646698 2 -2 -1 
288 6 2 1.00000000 128.19999695 431.76286316 -419.46455050 -109.61251831 2 -2 -1 
289 6 1 -1.00000000 129.10000610 432.83916473 -415.70230955 -110.52328491 2 -2 -1 
290 6 1 -1.00000000 129.10000610 435.55965996 -415.40461010 -107.78002930 2 -2 -1 
291 6 1 -1.00000000 129.10000610 437.68803024 -412.43828392 -108.37371826 2 -2 -1 
292 6 2 1.00000000 128.19999695 440.75083923 -410.48905849 -108.13882446 2 -2 -1 
293 6 1 -1.00000000 129.10000610 444.63333130 -410.21862745 -108.28170776 2 -2 -1 
294 6 2 1.00000000 128.19999695 446.15445900 -407.29676628 -110.18294525 2 -2 -1 
295 6 2 1.00000000 128.19999695 447.75180435 -408.70242739 -113.53277588 2 -2 -1 
296 6 2 1.00000000 128.19999695 447.45168304 -412.34816742 -114.16037750 2 -2 -1 
297 6 1 -1.00000000 129.10000610 444.97619057 -414.81777745 -114.58655548 2 -2 -1 
298 6 2 1.00000000 128.19999695 441.60461235 -415.99432051 -115.07692719 2 -2 -1 
299 6 1 -1.00000000 129.10000610 440.92341423 -419.36328554 -113.06998444 2 -2 -1 
300 6 2 1.00000000 128.19999695 441.83201599 -421.95253563 -110.11747742 2 -2 -1 
301 7 2 1.00000000 128.19999695 -69.86026764 -12.52928734 -847.45303726 0 0 -4 
302 7 1 -1.00000000 129.10000610 -68.17364502 -15.75178242 -847.72616196 0 0 -4 
303 7 2 1.00000000 128.19999695 -65.97611237 -17.55308723 -850.15754509 0 0 -4 
304 7 2 1.00000000 128.19999695 -63.26126480 -20.25253487 -850.96236229 0 0 -4 
305 7 2 1.00000000 128.19999695 -63.56262970 -22.52078819 -853.97934532 0 0 -4 
306 7 1 -1.00000000 129.10000610 -63.39594650 -20.60367393 -857.16710091 0 0 -4 
307 7 2 1.00000000 128.19999695 -65.03849792 -17.70381355 -859.14738274 0 0 -4 
308 7 1 -1.00000000 129.10000610 -63.62733078 -15.38767719 -861.42311859 0 0 -4 
309 7 1 -1.00000000 129.10000610 -60.72550583 -15.82245255 -863.58227158 0 0 -4 
310 7 1 -1.00000000 129.10000610 -61.26322556 -15.17778206 -867.19216537 0 0 -4 
311 7 2 1.00000000 128.19999695 -59.08029938 -15.37607288 -870.53514481 0 0 -4 
312 7 1 -1.00000000 129.10000610 -59.85808563 -14.32466984 -874.12580109 0 0 -4 
313 7 1 -1.00000000 129.10000610 -58.48044968 -11.02198219 -875.72840118 0 0 -4 
314 7 1 -1.00000000 129.10000610 -54.72193909 -11.34296513 -876.64445496 0 0 -4 
315 7 2 1.00000000 128.19999695 -54.33968353 -15.12223625 -877.55127335 0 0 -4 
316 7 2 1.00000000 128.19999695 -54.67244339 -15.51679516 -881.28866196 0 0 -4 
317 7 1 -1.00000000 129.10000610 -55.80541611 -13.15130043 -884.29852676 0 0 -4 
318 7 1 -1.00000000 129.10000610 -57.49373245 -12.32067204 -888.02767563 0 0 -4 
319 7 2 1.00000000 128.19999695 -57.49806976 -8.49197102 -887.86824799 0 0 -4 
320 7 1 -1.00000000 129.10000610 -57.01428223 -4.72339535 -888.24654388 0 0 -4 
321 7 1 -1.00000000 129.10000610 -56.01130295 -1.09175932 -887.83174133 0 0 -4 
322 7 1 -1.00000000 129.10000610 -56.49123001 2.34995270 -889.21268082 0 0 -4 
323 7 2 1.00000000 128.19999695 -56.43516541 3.72507286 -892.87953568 0 0 -4 
324 7 1 -1.00000000 129.10000610 -53.69536972 2.53669620 -895.32114410 0 0 -4 
325 7 1 -1.00000000 129.10000610 -50.40697098 1.62938392 -896.48023987 0 0 -4 
326 7 2 1.00000000 128.19999695 -48.28416061 4.61691475 -894.85617828 0 0 -4 
327 7 2 1.00000000 128.19999695 -44.62642670 5.83525848 -894.63401794 0 0 -4 
328 7 2 1.00000000 128.19999695 -41.46136093 7.84267759 -893.31708527 0 0 -4 
329 7 2 1.00000000 128.19999695 -38.03071213 7.17384291 -892.03816223 0 0 -4 
330 7 2 1.00000000 128.19999695 -36.62768555 3.71146369 -892.80482483 0 0 -4 
331 7 1 -1.00000000 129.10000610 -35.18578720 4.04247427 -896.18842316 0 0 -4 
332 7 1 -1.00000000 129.10000610 -34.91594315 7.76649046 -897.42485046 0 0 -4 
333 7 1 -1.00000000 129.10000610 -33.28300095 8.77834702 -900.55865479 0 0 -4 
334 7 2 1.00000000 128.19999695 -32.39719772 12.11287689 -901.95169067 0 0 -4 
335 7 2 1.00000000 128.19999695 -35.46981049 14.23322392 -903.02520752 0 0 -4 
336 7 2 1.00000000 128.19999695 -39.08295822 14.17567062 -902.19567108 0 0 -4 
337 7 1 -1.00000000 129.10000610 -40.63885880 10.94598866 -902.98925781 0 0 -4 
338 7 2 1.00000000 128.19999695 -40.74165344 7.30019617 -901.84647369 0 0 -4 
339 7 1 -1.00000000 129.10000610 -42.14891052 3.80070329 -902.85764313 0 0 -4 
340 7 1 -1.00000000 129.10000610 -40.67910004 0.76741058 -901.01720428 0 0 -4 
341 7 1 -1.00000000 129.10000610 -40.35371780 -1.27768433 -897.80479431 0 0 -4 
342 7 2 1.00000000 128.19999695 -38.13642502 -4.40453529 -897.14695740 0 0 -4 
343 7 1 -1.00000000 129.10000610 -36.45029831 -6.75953245 -899.43000793 0 0 -4 
344 7 2 1.00000000 128.19999695 -38.17686462 -10.37362766 -899.67653656 0 0 -4 
345 7 2 1.00000000 128.19999695 -42.28621674 -11.16623020 -899.14021301 0 0 -4 
346 7 2 1.00000000 128.19999695 -44.29873276 -8.04588032 -899.14533997 0 0 -4 
347 7 1 -1.00000000 129.10000610 -45.73145294 -7.10744238 -902.44801331 0 0 -4 
348 7 2 1.00000000 128.19999695 -45.08757782 -7.82466030 -906.17355347 0 0 -4 
349 7 1 -1.00000000 129.10000610 -43.51407242 -11.19820309 -906.48061371 0 0 -4 
350 7 2 1.00000000 128.19999695 -42.42963791 -12.93969822 -909.29913330 0 0 -4 
351 8 2 1.00000000 128.19999695 -48.00275803 -96.82839203 650.27263641 0 0 3 
352 8 1 -1.00000000 129.10000610 -49.74254990 -93.52476501 650.48093987 0 0 3 
353 8 2 1.00000000 128.19999695 -49.63081360 -89.91613007 651.87404060 0 0 3 
354 8 2 1.00000000 128.19999695 -47.74575424 -87.10621643 650.45887375 0 0 3 
355 8 2 1.00000000 128.19999695 -44.97157288 -88.32656097 648.04971886 0 0 3 
356 8 1 -1.00000000 129.10000610 -44.28181839 -84.81705475 645.97663116 0 0 3 
357 8 2 1.00000000 128.19999695 -44.91539764 -81.14383698 644.97786903 0 0 3 
358 8 1 -1.00000000 129.10000610 -45.63254547 -77.40171051 644.99739838 0 0 3 
359 8 1 -1.00000000 129.10000610 -44.00532532 -74.24720001 643.13556480 0 0 3 
360 8 1 -1.00000000 129.10000610 -44.47875977 -75.00497437 639.55624390 0 0 3 
361 8 2 1.00000000 128.19999695 -42.79731369 -74.69667053 636.05498505 0 0 3 
362 8 1 -1.00000000 129.10000610 -40.69670868 -73.03499603 633.43329620 0 0 3 
363 8 1 -1.00000000 129.10000610 -38.04781342 -70.33860016 632.36901093 0 0 3 
364 8 1 -1.00000000 129.10000610 -38.97707748 -69.38738251 628.94628811 0 0 3 
365 8 2 1.00000000 128.19999695 -42.75614929 -68.55454254 628.68606234 0 0 3 
366 8 2 1.00000000 128.19999695 -45.72008896 -66.90641785 629.52185011 0 0 3 
367 8 1 -1.00000000 129.10000610 -47.40164948 -68.99428558 632.56397438 0 0 3 
368 8 1 -1.00000000 129.10000610 -48.98385620 -66.49426270 634.65067768 0 0 3 
369 8 2 1.00000000 128.19999695 -47.93852234 -63.64368439 637.12649918 0 0 3 
370 8 1 -1.00000000 129.10000610 -46.28361511 -60.17593002 637.87136936 0 0 3 